 Gaussian 16, Revision A.03,
 Gaussian 16:  ES64L-G16RevA.03 25-Dec-2016

 ----------------------------------------------------------------------
 #P ROCCSD(T)=(MaxCyc=150, Full)/Gen SCF=(maxcycle=400, vshift=200) Pse
 udo=Read Integral(NoXCTest) Pop=Regular MaxDisk=500GB
 ----------------------------------------------------------------------

 ---
 ZnO
 ---
 Symbolic Z-matrix:
 Charge =  0 Multiplicity = 1

                         Standard orientation:
 ---------------------------------------------------------------------
 Center     Atomic      Atomic             Coordinates (Angstroms)
 Number     Number       Type             X           Y           Z
 ---------------------------------------------------------------------
      1         30           0        0.000000    0.000000    0.315789
      2          8           0        0.000000    0.000000   -1.184211
 ---------------------------------------------------------------------

 SCF Done:  E(ROHF) =  -240.868443936     A.U. after   19 cycles
 E2 =    -0.1335080137D+01 EUMP2 =    -0.24220352407269D+03
 CCSD(T)
 CCSD(T)= -0.24213950296D+03

 The electronic state is 1-SG.
 Alpha  occ. eigenvalues --   -5.90725  -3.99124  -3.98294  -3.98294  -1.20561
 Alpha  occ. eigenvalues --   -0.84061  -0.84061  -0.82302  -0.82302  -0.79449
 Alpha  occ. eigenvalues --   -0.39849  -0.39849  -0.39284
 Alpha virt. eigenvalues --   -0.04349   0.02823   0.02840   0.02840   0.04660
 Alpha virt. eigenvalues --    0.09511   0.09511   0.13503   0.17943   0.22001
 Alpha virt. eigenvalues --    0.23688   0.23688   0.24888   0.24888   0.30192

 Mulliken charges and spin densities:
               1          2
     1  Zn   1.227748   0.000000
     2  O   -1.227748   0.000000
 Sum of Mulliken charges =  -0.00000   0.00000

 Dipole moment (field-independent basis, Debye):
    X=              0.0000    Y=              0.0000    Z=              7.0338  Tot=              7.0338
 Quadrupole moment (field-independent basis, Debye-Ang):
   XX=            -17.9391   YY=            -17.9391   ZZ=            -20.7717
   XY=              0.0000   XZ=              0.0000   YZ=              0.0000

 P ROCCSD(T)=(MaxCyc=150, Full)/Gen SCF=(maxcycle=400, vshift=200) Pseu
 35241\MP4SDQ=-242.1393399\CCSD=-242.0914164\CCSD(T)=-242.139503\RMSD=4
 Normal termination of Gaussian 16 at Fri Apr 13 19:15:47 2018.
