 Gaussian 16, Revision A.03,
 Gaussian 16:  ES64L-G16RevA.03 25-Dec-2016

 ----------------------------------------------------------------------
 #P ROCCSD(T)=(MaxCyc=150, Full)/Gen SCF=(maxcycle=400, vshift=200) Pse
 udo=Read Integral(NoXCTest) Pop=Regular MaxDisk=500GB
 ----------------------------------------------------------------------

 ---
 ZnO
 ---
 Symbolic Z-matrix:
 Charge =  0 Multiplicity = 1

                         Standard orientation:
 ---------------------------------------------------------------------
 Center     Atomic      Atomic             Coordinates (Angstroms)
 Number     Number       Type             X           Y           Z
 ---------------------------------------------------------------------
      1         30           0        0.000000    0.000000    0.315789
      2          8           0        0.000000    0.000000   -1.184211
 ---------------------------------------------------------------------

 SCF Done:  E(ROHF) =  -240.871351742     A.U. after   18 cycles
 E2 =    -0.1403792004D+01 EUMP2 =    -0.24227514374557D+03
 CCSD(T)
 CCSD(T)= -0.24220864899D+03

 The electronic state is 1-SG.
 Alpha  occ. eigenvalues --   -5.90710  -3.99099  -3.98277  -3.98277  -1.20512
 Alpha  occ. eigenvalues --   -0.84050  -0.84050  -0.82295  -0.82295  -0.79431
 Alpha  occ. eigenvalues --   -0.39854  -0.39854  -0.39269
 Alpha virt. eigenvalues --   -0.04338   0.02563   0.02563   0.02587   0.04194
 Alpha virt. eigenvalues --    0.08262   0.08262   0.12166   0.16601   0.17871
 Alpha virt. eigenvalues --    0.17951   0.17951   0.20491   0.20491   0.23089

 Mulliken charges and spin densities:
               1          2
     1  Zn   1.059261   0.000000
     2  O   -1.059261   0.000000
 Sum of Mulliken charges =  -0.00000   0.00000

 Dipole moment (field-independent basis, Debye):
    X=              0.0000    Y=              0.0000    Z=              7.0203  Tot=              7.0203
 Quadrupole moment (field-independent basis, Debye-Ang):
   XX=            -17.9274   YY=            -17.9274   ZZ=            -20.7670
   XY=              0.0000   XZ=              0.0000   YZ=              0.0000

 P ROCCSD(T)=(MaxCyc=150, Full)/Gen SCF=(maxcycle=400, vshift=200) Pseu
 51437\MP4SDQ=-242.2048758\CCSD=-242.1579662\CCSD(T)=-242.208649\RMSD=8
 Normal termination of Gaussian 16 at Fri Apr 13 21:33:47 2018.
