 Gaussian 16, Revision A.03,
 Gaussian 16:  ES64L-G16RevA.03 25-Dec-2016

 ----------------------------------------------------------------------
 #P ROCCSD(T)=(maxcyc=150, Full)/Gen 5d 7f SCF=(maxcycles=300) Integral
 (NoXCTest) MaxDisk=500GB Pop=Regular Pseudo=Read IOp(5/15=2) Guess=Rea
 d
 ----------------------------------------------------------------------

 ---
 ScH
 ---
 Symbolic Z-matrix:
 Charge =  0 Multiplicity = 1

                         Standard orientation:
 ---------------------------------------------------------------------
 Center     Atomic      Atomic             Coordinates (Angstroms)
 Number     Number       Type             X           Y           Z
 ---------------------------------------------------------------------
      1         21           0        0.000000    0.000000    0.054545
      2          1           0        0.000000    0.000000   -1.145455
 ---------------------------------------------------------------------

 SCF Done:  E(ROHF) =  -46.6812457123     A.U. after    9 cycles
 E2 =    -0.4414757528D+00 EUMP2 =    -0.47122721465042D+02
 CCSD(T)
 CCSD(T)= -0.47157974161D+02

 The electronic state is 1-SG.
 Alpha  occ. eigenvalues --   -2.65461  -1.63455  -1.58845  -1.58845  -0.46841
 Alpha  occ. eigenvalues --   -0.21561
 Alpha virt. eigenvalues --    0.01333   0.01333   0.01366   0.01668   0.02608
 Alpha virt. eigenvalues --    0.02608   0.02627   0.02642   0.02642   0.04093
 Alpha virt. eigenvalues --    0.04430   0.04430   0.07043   0.07439   0.07439

 Mulliken charges and spin densities:
               1          2
     1  Sc   0.295877   0.000000
     2  H   -0.295877   0.000000
 Sum of Mulliken charges =  -0.00000   0.00000

 Dipole moment (field-independent basis, Debye):
    X=              0.0000    Y=              0.0000    Z=              0.7462  Tot=              0.7462
 Quadrupole moment (field-independent basis, Debye-Ang):
   XX=            -23.4856   YY=            -23.4856   ZZ=            -22.3964
   XY=              0.0000   XZ=              0.0000   YZ=              0.0000

 P ROCCSD(T)=(maxcyc=150, Full)/Gen 5d 7f SCF=(maxcycles=300) Integral(
 P2-0=-47.1227215\MP4SDQ=-47.1396139\CCSD=-47.139202\CCSD(T)=-47.157974
 Normal termination of Gaussian 16 at Tue Feb 13 20:39:40 2018.
