 Gaussian 16, Revision A.03,
 Gaussian 16:  ES64L-G16RevA.03 25-Dec-2016

 ----------------------------------------------------------------------
 #P ROCCSD(T)=(maxcyc=150, Full, SaveAmplitudes, ReadAmplitudes)/Gen 5d
  7f SCF=(maxcycles=300) Integral(NoXCTest) MaxDisk=500GB Pop=Regular P
 seudo=Read Guess=Read
 ----------------------------------------------------------------------

 ---
 CrO
 ---
 Symbolic Z-matrix:
 Charge =  0 Multiplicity = 5

                         Standard orientation:
 ---------------------------------------------------------------------
 Center     Atomic      Atomic             Coordinates (Angstroms)
 Number     Number       Type             X           Y           Z
 ---------------------------------------------------------------------
      1         24           0        0.000000    0.000000    0.375000
      2          8           0        0.000000    0.000000   -1.125000
 ---------------------------------------------------------------------

 SCF Done:  E(ROHF) =  -102.018282021     A.U. after   24 cycles
 E2 =    -0.9355869567D+00 EUMP2 =    -0.10295386897755D+03
 CCSD(T)
 CCSD(T)= -0.10297539089D+03

 Unable to determine electronic state:  an orbital has unidentified symmetry.
 Alpha  occ. eigenvalues --   -3.70966  -2.48578  -2.44562  -2.41610  -1.19578
 Alpha  occ. eigenvalues --   -0.63395  -0.57655  -0.56058  -0.50410  -0.48084
 Alpha  occ. eigenvalues --   -0.39818  -0.30230
 Alpha virt. eigenvalues --    0.00637   0.01053   0.01765   0.02738   0.04132
 Alpha virt. eigenvalues --    0.04415   0.05335   0.05336   0.05461   0.05768
 Alpha virt. eigenvalues --    0.06061   0.06456   0.10569   0.13184   0.13192

 Mulliken charges and spin densities:
               1          2
     1  Cr   1.034117   3.893493
     2  O   -1.034117   0.106507
 Sum of Mulliken charges =  -0.00000   4.00000

 Dipole moment (field-independent basis, Debye):
    X=              0.0000    Y=              0.0000    Z=              4.4029  Tot=              4.4029
 Quadrupole moment (field-independent basis, Debye-Ang):
   XX=            -20.7533   YY=            -19.6385   ZZ=            -24.5192
   XY=              0.0000   XZ=              0.0000   YZ=              0.0000

 \\#P ROCCSD(T)=(maxcyc=150, Full, SaveAmplitudes, ReadAmplitudes)/Gen
 -0=-102.953869\CCSD=-102.9248723\CCSD(T)=-102.9753909\RMSD=3.399e-09\P
 Normal termination of Gaussian 16 at Tue Mar 13 08:32:04 2018.
