 Gaussian 16, Revision A.03,
 Gaussian 16:  ES64L-G16RevA.03 25-Dec-2016

 ----------------------------------------------------------------------
 #P ROCCSD(T)=(maxcyc=150, Full, SaveAmplitudes, ReadAmplitudes)/Gen 5d
  7f SCF=(maxcycles=300) Integral(NoXCTest) MaxDisk=500GB Pop=Regular P
 seudo=Read Guess=Read
 ----------------------------------------------------------------------

 ---
 ScO
 ---
 Symbolic Z-matrix:
 Charge =  0 Multiplicity = 2

                         Standard orientation:
 ---------------------------------------------------------------------
 Center     Atomic      Atomic             Coordinates (Angstroms)
 Number     Number       Type             X           Y           Z
 ---------------------------------------------------------------------
      1         21           0        0.000000    0.000000    0.386207
      2          8           0        0.000000    0.000000   -1.013793
 ---------------------------------------------------------------------

 SCF Done:  E(ROHF) =  -61.8863387511     A.U. after   17 cycles
 E2 =    -0.7037990636D+00 EUMP2 =    -0.62590137814648D+02
 CCSD(T)
 CCSD(T)= -0.62615172858D+02

 The electronic state is 2-SG.
 Alpha  occ. eigenvalues --   -2.58888  -1.71510  -1.54863  -1.54863  -1.09372
 Alpha  occ. eigenvalues --   -0.52513  -0.52513  -0.46173  -0.21019
 Alpha virt. eigenvalues --    0.00809   0.00809   0.02023   0.02043   0.02789
 Alpha virt. eigenvalues --    0.02789   0.02942   0.02942   0.02973   0.03931
 Alpha virt. eigenvalues --    0.03931   0.06227   0.07899   0.07899   0.08896

 Mulliken charges and spin densities:
               1          2
     1  Sc   1.098313   1.001794
     2  O   -1.098313  -0.001794
 Sum of Mulliken charges =  -0.00000   1.00000

 Dipole moment (field-independent basis, Debye):
    X=              0.0000    Y=              0.0000    Z=              1.5130  Tot=              1.5130
 Quadrupole moment (field-independent basis, Debye-Ang):
   XX=            -22.2776   YY=            -22.2776   ZZ=            -30.2609
   XY=              0.0000   XZ=              0.0000   YZ=              0.0000

 \\#P ROCCSD(T)=(maxcyc=150, Full, SaveAmplitudes, ReadAmplitudes)/Gen
 863388\PMP2-0=-62.5901378\CCSD=-62.5807558\CCSD(T)=-62.6151729\RMSD=4.
 Normal termination of Gaussian 16 at Wed Mar 14 06:42:01 2018.
