 Gaussian 16, Revision A.03,
 Gaussian 16:  ES64L-G16RevA.03 25-Dec-2016

 ----------------------------------------------------------------------
 #P ROCCSD(T)=(maxcyc=150, Full, SaveAmplitudes, ReadAmplitudes)/Gen 5d
  7f SCF=(maxcycles=300) Integral(NoXCTest) MaxDisk=500GB Pop=Regular P
 seudo=Read Guess=Read
 ----------------------------------------------------------------------

 ---
 MnO
 ---
 Symbolic Z-matrix:
 Charge =  0 Multiplicity = 6

                         Standard orientation:
 ---------------------------------------------------------------------
 Center     Atomic      Atomic             Coordinates (Angstroms)
 Number     Number       Type             X           Y           Z
 ---------------------------------------------------------------------
      1         25           0        0.000000    0.000000    0.436364
      2          8           0        0.000000    0.000000   -1.363636
 ---------------------------------------------------------------------

 SCF Done:  E(ROHF) =  -119.165983983     A.U. after   22 cycles
 E2 =    -0.9290208095D+00 EUMP2 =    -0.12009500479230D+03
 CCSD(T)
 CCSD(T)= -0.12012178428D+03

 The electronic state is 6-SG.
 Alpha  occ. eigenvalues --   -4.16431  -2.81304  -2.81304  -2.80762  -1.10589
 Alpha  occ. eigenvalues --   -0.65178  -0.65178  -0.64905  -0.64905  -0.61714
 Alpha  occ. eigenvalues --   -0.33749  -0.33749  -0.33231
 Alpha virt. eigenvalues --   -0.05235   0.01178   0.01178   0.01407   0.03358
 Alpha virt. eigenvalues --    0.05687   0.05687   0.05715   0.05715   0.06384
 Alpha virt. eigenvalues --    0.06900   0.06900   0.10988   0.12591   0.17839

 Mulliken charges and spin densities:
               1          2
     1  Mn   1.126504   4.936107
     2  O   -1.126504   0.063893
 Sum of Mulliken charges =  -0.00000   5.00000

 Dipole moment (field-independent basis, Debye):
    X=              0.0000    Y=              0.0000    Z=              9.4504  Tot=              9.4504
 Quadrupole moment (field-independent basis, Debye-Ang):
   XX=            -19.0455   YY=            -19.0455   ZZ=            -24.5764
   XY=              0.0000   XZ=              0.0000   YZ=              0.0000

 \\#P ROCCSD(T)=(maxcyc=150, Full, SaveAmplitudes, ReadAmplitudes)/Gen
 .165984\PMP2-0=-120.0950048\CCSD=-120.0790507\CCSD(T)=-120.1217843\RMS
 Normal termination of Gaussian 16 at Fri Mar  9 18:55:40 2018.
