 Gaussian 16, Revision A.03,
 Gaussian 16:  ES64L-G16RevA.03 25-Dec-2016

 ----------------------------------------------------------------------
 #P ROCCSD(T)=(MaxCyc=150, FrzINGC)/Gen SCF=(maxcycle=400, vshift=200)
 Integral(DKHSO, NoXCTest) Pop=Regular MaxDisk=500GB Guess=Read IOp(5/1
 5=2)
 ----------------------------------------------------------------------

 ---
 CuH
 ---
 Symbolic Z-matrix:
 Charge =  0 Multiplicity = 1

                         Standard orientation:
 ---------------------------------------------------------------------
 Center     Atomic      Atomic             Coordinates (Angstroms)
 Number     Number       Type             X           Y           Z
 ---------------------------------------------------------------------
      1         29           0        0.000000    0.000000    0.040000
      2          1           0        0.000000    0.000000   -1.160000
 ---------------------------------------------------------------------

 SCF Done:  E(ROHF) =  -1653.67820636     A.U. after   11 cycles
 E2 =    -0.1152477607D+01 EUMP2 =    -0.16548306839655D+04
 CCSD(T)
 CCSD(T)= -0.16547274759D+04

 The electronic state is 1-SG.
 Alpha  occ. eigenvalues -- -332.52663 -41.70665 -35.84623 -35.84435 -35.84435
 Alpha  occ. eigenvalues --   -5.20066  -3.41395  -3.39782  -3.39782  -0.55956
 Alpha  occ. eigenvalues --   -0.52666  -0.52666  -0.51354  -0.51354  -0.33508
 Alpha virt. eigenvalues --    0.00648   0.02681   0.02681   0.03012   0.05585
 Alpha virt. eigenvalues --    0.08969   0.08969   0.09125   0.13371   0.13371
 Alpha virt. eigenvalues --    0.13434   0.14040   0.14040   0.20313   0.22801

 Mulliken charges and spin densities:
               1          2
     1  Cu   0.284780   0.000000
     2  H   -0.284780   0.000000
 Sum of Mulliken charges =  -0.00000   0.00000

 Dipole moment (field-independent basis, Debye):
    X=              0.0000    Y=              0.0000    Z=              3.3396  Tot=              3.3396
 Quadrupole moment (field-independent basis, Debye-Ang):
   XX=            -14.1992   YY=            -14.1992   ZZ=            -14.8516
   XY=              0.0000   XZ=              0.0000   YZ=              0.0000

  ROCCSD(T)=(MaxCyc=150, FrzINGC)/Gen SCF=(maxcycle=400, vshift=200) In
 Normal termination of Gaussian 16 at Wed Apr  4 20:24:13 2018.
