 Gaussian 16, Revision A.03,
 Gaussian 16:  ES64L-G16RevA.03 25-Dec-2016

 ----------------------------------------------------------------------
 #P ROCCSD(T)=(MaxCyc=150, FrzINGC)/Gen SCF=(maxcycle=400, vshift=200)
 Integral(DKHSO, NoXCTest) Pop=Regular MaxDisk=500GB Guess=Read
 ----------------------------------------------------------------------

 ---
 CuH
 ---
 Symbolic Z-matrix:
 Charge =  0 Multiplicity = 1

                         Standard orientation:
 ---------------------------------------------------------------------
 Center     Atomic      Atomic             Coordinates (Angstroms)
 Number     Number       Type             X           Y           Z
 ---------------------------------------------------------------------
      1         29           0        0.000000    0.000000    0.040000
      2          1           0        0.000000    0.000000   -1.160000
 ---------------------------------------------------------------------

 SCF Done:  E(ROHF) =  -1653.67850438     A.U. after   18 cycles
 E2 =    -0.1177107554D+01 EUMP2 =    -0.16548556119302D+04
 CCSD(T)
 CCSD(T)= -0.16547502795D+04

 The electronic state is 1-SG.
 Alpha  occ. eigenvalues -- -332.52672 -41.70668 -35.84624 -35.84438 -35.84438
 Alpha  occ. eigenvalues --   -5.20067  -3.41395  -3.39783  -3.39783  -0.55955
 Alpha  occ. eigenvalues --   -0.52669  -0.52669  -0.51355  -0.51355  -0.33509
 Alpha virt. eigenvalues --    0.00541   0.02593   0.02593   0.02742   0.04731
 Alpha virt. eigenvalues --    0.07863   0.08602   0.08602   0.11934   0.11934
 Alpha virt. eigenvalues --    0.12012   0.12606   0.12606   0.15154   0.18766

 Mulliken charges and spin densities:
               1          2
     1  Cu   0.302363   0.000000
     2  H   -0.302363   0.000000
 Sum of Mulliken charges =  -0.00000   0.00000

 Dipole moment (field-independent basis, Debye):
    X=              0.0000    Y=             -0.0000    Z=              3.3381  Tot=              3.3381
 Quadrupole moment (field-independent basis, Debye-Ang):
   XX=            -14.1977   YY=            -14.1977   ZZ=            -14.8537
   XY=             -0.0000   XZ=             -0.0000   YZ=              0.0000

  ROCCSD(T)=(MaxCyc=150, FrzINGC)/Gen SCF=(maxcycle=400, vshift=200) In
 P2-0=-1654.8556119\MP4SDQ=-1654.7965898\CCSD=-1654.709603\CCSD(T)=-165
 Normal termination of Gaussian 16 at Thu Apr  5 08:58:18 2018.
