 Gaussian 16, Revision A.03,
 Gaussian 16:  ES64L-G16RevA.03 25-Dec-2016

 ----------------------------------------------------------------------
 #P ROCCSD(T)=(maxcyc=150, Full, SaveAmplitudes, ReadAmplitudes)/Gen 5d
  7f SCF=(maxcycles=300) Integral(NoXCTest) MaxDisk=500GB Pop=Regular P
 seudo=Read Guess=Read IOp(5/15=2)
 ----------------------------------------------------------------------

 ---
 CrO
 ---
 Symbolic Z-matrix:
 Charge =  0 Multiplicity = 5

                         Standard orientation:
 ---------------------------------------------------------------------
 Center     Atomic      Atomic             Coordinates (Angstroms)
 Number     Number       Type             X           Y           Z
 ---------------------------------------------------------------------
      1         24           0        0.000000    0.000000    0.400000
      2          8           0        0.000000    0.000000   -1.200000
 ---------------------------------------------------------------------

 SCF Done:  E(ROHF) =  -101.881268933     A.U. after   26 cycles
 E2 =    -0.8775194345D+00 EUMP2 =    -0.10275878836790D+03
 CCSD(T)
 CCSD(T)= -0.10278564902D+03

 Unable to determine electronic state:  an orbital has unidentified symmetry.
 Alpha  occ. eigenvalues --   -3.79369  -2.53554  -2.49625  -2.46326  -1.17858
 Alpha  occ. eigenvalues --   -0.61880  -0.58404  -0.57161  -0.48012  -0.43152
 Alpha  occ. eigenvalues --   -0.38662  -0.31706
 Alpha virt. eigenvalues --   -0.00181   0.00575   0.01680   0.03181   0.03898
 Alpha virt. eigenvalues --    0.04503   0.06076   0.07569   0.07583   0.08063
 Alpha virt. eigenvalues --    0.08079   0.08462   0.13149   0.13490   0.15885

 Mulliken charges and spin densities:
               1          2
     1  Cr   1.093743   3.864353
     2  O   -1.093743   0.135647
 Sum of Mulliken charges =  -0.00000   4.00000

 Dipole moment (field-independent basis, Debye):
    X=              0.0000    Y=              0.0000    Z=              6.1234  Tot=              6.1234
 Quadrupole moment (field-independent basis, Debye-Ang):
   XX=            -20.6848   YY=            -19.6001   ZZ=            -24.0401
   XY=              0.0000   XZ=              0.0000   YZ=              0.0000

 \\#P ROCCSD(T)=(maxcyc=150, Full, SaveAmplitudes, ReadAmplitudes)/Gen
 SD=-102.7354348\CCSD(T)=-102.785649\RMSD=8.061e-09\PG=C*V [C*(O1Cr1)]\
 Normal termination of Gaussian 16 at Mon Mar 12 14:32:51 2018.
