 Gaussian 16, Revision A.03,
 Gaussian 16:  ES64L-G16RevA.03 25-Dec-2016

 ----------------------------------------------------------------------
 #P ROCCSD(T)=(maxcyc=150, Full, SaveAmplitudes, ReadAmplitudes)/Gen 5d
  7f SCF=(maxcycles=300) Integral(NoXCTest) MaxDisk=500GB Pop=Regular P
 seudo=Read Guess=Read IOp(5/15=2)
 ----------------------------------------------------------------------

 ---
 CrO
 ---
 Symbolic Z-matrix:
 Charge =  0 Multiplicity = 5

                         Standard orientation:
 ---------------------------------------------------------------------
 Center     Atomic      Atomic             Coordinates (Angstroms)
 Number     Number       Type             X           Y           Z
 ---------------------------------------------------------------------
      1         24           0        0.000000    0.000000    0.300000
      2          8           0        0.000000    0.000000   -0.900000
 ---------------------------------------------------------------------

 SCF Done:  E(ROHF) =  -101.598178591     A.U. after   31 cycles
 E2 =    -0.8809864676D+00 EUMP2 =    -0.10247916505910D+03
 CCSD(T)
 CCSD(T)= -0.10248565941D+03

 Unable to determine electronic state:  an orbital has unidentified symmetry.
 Alpha  occ. eigenvalues --   -3.74147  -2.51611  -2.47149  -2.43434  -1.26878
 Alpha  occ. eigenvalues --   -0.75004  -0.69043  -0.65601  -0.50379  -0.50289
 Alpha  occ. eigenvalues --   -0.30170  -0.26418
 Alpha virt. eigenvalues --    0.01451   0.02447   0.02800   0.02811   0.05414
 Alpha virt. eigenvalues --    0.07017   0.07668   0.07742   0.07795   0.07798
 Alpha virt. eigenvalues --    0.09689   0.09966   0.12190   0.17841   0.20668

 Mulliken charges and spin densities:
               1          2
     1  Cr   0.829186   3.723858
     2  O   -0.829186   0.276142
 Sum of Mulliken charges =  -0.00000   4.00000

 Dipole moment (field-independent basis, Debye):
    X=              0.0000    Y=              0.0000    Z=              0.2639  Tot=              0.2639
 Quadrupole moment (field-independent basis, Debye-Ang):
   XX=            -22.8502   YY=            -19.9566   ZZ=            -22.8272
   XY=              0.0000   XZ=              0.0000   YZ=              0.0000

 \\#P ROCCSD(T)=(maxcyc=150, Full, SaveAmplitudes, ReadAmplitudes)/Gen
 SD=-102.4469036\CCSD(T)=-102.4856594\RMSD=3.330e-09\PG=C*V [C*(O1Cr1)]
 Normal termination of Gaussian 16 at Fri Mar  9 16:16:15 2018.
