 Gaussian 16, Revision A.03,
 Gaussian 16:  ES64L-G16RevA.03 25-Dec-2016

 ----------------------------------------------------------------------
 #P ROCCSD(T)=(maxcyc=150, Full)/Gen 5d 7f SCF=(maxcycles=300, NoVarAcc
 , VShift=200) MaxDisk=100GB Pop=Regular Pseudo=Read Guess=Read
 ----------------------------------------------------------------------

 --
 Ti
 --
 Symbolic Z-matrix:
 Charge =  0 Multiplicity = 3

                         Standard orientation:
 ---------------------------------------------------------------------
 Center     Atomic      Atomic             Coordinates (Angstroms)
 Number     Number       Type             X           Y           Z
 ---------------------------------------------------------------------
      1         22           0        0.000000    0.000000    0.000000
 ---------------------------------------------------------------------

 SCF Done:  E(ROHF) =  -57.5806320780     A.U. after   17 cycles
 E2 =    -0.4125026722D+00 EUMP2 =    -0.57993134750175D+02
 CCSD(T)
 CCSD(T)= -0.58030769233D+02

 Unable to determine electronic state:  an orbital has unidentified symmetry.
 Alpha  occ. eigenvalues --   -2.99441  -1.89121  -1.89121  -1.89121  -0.44059
 Alpha  occ. eigenvalues --   -0.44059  -0.22957
 Alpha virt. eigenvalues --    0.01434   0.01434   0.01434   0.02397   0.05301
 Alpha virt. eigenvalues --    0.05301   0.05301   0.05362   0.05362   0.05362
 Alpha virt. eigenvalues --    0.05460   0.05460   0.12249   0.12249   0.12249

 Mulliken charges and spin densities:
               1          2
     1  Ti   0.000000   2.000000
 Sum of Mulliken charges =   0.00000   2.00000

 Dipole moment (field-independent basis, Debye):
    X=              0.0000    Y=              0.0000    Z=             -0.0000  Tot=              0.0000
 Quadrupole moment (field-independent basis, Debye-Ang):
   XX=            -21.9987   YY=            -21.9987   ZZ=            -21.9987
   XY=             -0.0000   XZ=             -0.0000   YZ=             -0.0000

 1\1\GINC-C506-092\SP\ROCCSD(T)-Full\Gen\Ti1(3)\AANNABE\01-Apr-2018\0\\
 #P ROCCSD(T)=(maxcyc=150, Full)/Gen 5d 7f SCF=(maxcycles=300, NoVarAcc
 , VShift=200) MaxDisk=100GB Pop=Regular Pseudo=Read Guess=Read\\Ti\\0,
 3\Ti,0,0.,0.,0.\\Version=ES64L-G16RevA.03\HF=-57.5806321\MP2=-57.99313
 48\MP3=-58.0145812\PUHF=-57.5806321\PMP2-0=-57.9931348\MP4SDQ=-58.0149
 734\CCSD=-58.0153875\CCSD(T)=-58.0307692\RMSD=6.687e-09\PG=OH [O(Ti1)]
 \\@

 Normal termination of Gaussian 16 at Sun Apr  1 14:31:54 2018.
