 Gaussian 16, Revision A.03,
 Gaussian 16:  ES64L-G16RevA.03 25-Dec-2016

 ----------------------------------------------------------------------
 #P ROCCSD(T)=(MaxCyc=150, Full)/Gen SCF=(maxcycle=400) Pseudo=Read Int
 egral(NoXCTest) Pop=Regular MaxDisk=500GB Guess=Read IOp(5/15=2)
 ----------------------------------------------------------------------

 ---
 CuO
 ---
 Symbolic Z-matrix:
 Charge =  0 Multiplicity = 2

                         Standard orientation:
 ---------------------------------------------------------------------
 Center     Atomic      Atomic             Coordinates (Angstroms)
 Number     Number       Type             X           Y           Z
 ---------------------------------------------------------------------
      1         29           0        0.000000    0.000000    0.281081
      2          8           0        0.000000    0.000000   -1.018919
 ---------------------------------------------------------------------

 SCF Done:  E(ROHF) =  -211.740825941     A.U. after   19 cycles
 E2 =    -0.1448929252D+01 EUMP2 =    -0.21318975519287D+03
 CCSD(T)
 CCSD(T)= -0.21310471660D+03

 Unable to determine electronic state:  an orbital has unidentified symmetry.
 Alpha  occ. eigenvalues --   -5.09578  -3.53269  -3.49183  -3.47325  -1.33293
 Alpha  occ. eigenvalues --   -0.76547  -0.73066  -0.67428  -0.61448  -0.61408
 Alpha  occ. eigenvalues --   -0.49432  -0.44355  -0.36013
 Alpha virt. eigenvalues --    0.00173   0.02745   0.02881   0.03495   0.05074
 Alpha virt. eigenvalues --    0.09371   0.09804   0.12109   0.13808   0.13817
 Alpha virt. eigenvalues --    0.13921   0.14213   0.14266   0.18996   0.21965

 Mulliken charges and spin densities:
               1          2
     1  Cu   0.628787   0.183658
     2  O   -0.628787   0.816342
 Sum of Mulliken charges =  -0.00000   1.00000

 Dipole moment (field-independent basis, Debye):
    X=              0.0000    Y=              0.0000    Z=              3.8423  Tot=              3.8423
 Quadrupole moment (field-independent basis, Debye-Ang):
   XX=            -16.9927   YY=            -18.4103   ZZ=            -18.0326
   XY=              0.0000   XZ=              0.0000   YZ=              0.0000

 \\#P ROCCSD(T)=(MaxCyc=150, Full)/Gen SCF=(maxcycle=400) Pseudo=Read I
 .1897552\MP4SDQ=-213.1340244\CCSD=-213.0483257\CCSD(T)=-213.1047166\RM
 Normal termination of Gaussian 16 at Mon Mar 26 02:12:36 2018.
