 Gaussian 16, Revision A.03,
 Gaussian 16:  ES64L-G16RevA.03 25-Dec-2016

 ----------------------------------------------------------------------
 #P ROCCSD(T)=(MaxCyc=150, Full)/Gen SCF=(maxcycle=400) Pseudo=Read Int
 egral(NoXCTest) Pop=Regular MaxDisk=500GB Guess=Read IOp(5/15=2)
 ----------------------------------------------------------------------

 ---
 CuO
 ---
 Symbolic Z-matrix:
 Charge =  0 Multiplicity = 2

                         Standard orientation:
 ---------------------------------------------------------------------
 Center     Atomic      Atomic             Coordinates (Angstroms)
 Number     Number       Type             X           Y           Z
 ---------------------------------------------------------------------
      1         29           0        0.000000    0.000000    0.281081
      2          8           0        0.000000    0.000000   -1.018919
 ---------------------------------------------------------------------

 SCF Done:  E(ROHF) =  -211.735598140     A.U. after   21 cycles
 E2 =    -0.1385002976D+01 EUMP2 =    -0.21312060111592D+03
 CCSD(T)
 CCSD(T)= -0.21303825374D+03

 Unable to determine electronic state:  an orbital has unidentified symmetry.
 Alpha  occ. eigenvalues --   -5.09629  -3.53326  -3.49230  -3.47365  -1.33347
 Alpha  occ. eigenvalues --   -0.76538  -0.73057  -0.67444  -0.61448  -0.61408
 Alpha  occ. eigenvalues --   -0.49426  -0.44347  -0.36038
 Alpha virt. eigenvalues --    0.00202   0.03104   0.03275   0.03854   0.05432
 Alpha virt. eigenvalues --    0.10827   0.11369   0.13534   0.19135   0.20042
 Alpha virt. eigenvalues --    0.20058   0.21050   0.21682   0.21835   0.25900

 Mulliken charges and spin densities:
               1          2
     1  Cu   0.865783   0.168721
     2  O   -0.865783   0.831279
 Sum of Mulliken charges =  -0.00000   1.00000

 Dipole moment (field-independent basis, Debye):
    X=              0.0000    Y=              0.0000    Z=              3.8564  Tot=              3.8564
 Quadrupole moment (field-independent basis, Debye-Ang):
   XX=            -16.9992   YY=            -18.4318   ZZ=            -18.0245
   XY=              0.0000   XZ=              0.0000   YZ=              0.0000

 \\#P ROCCSD(T)=(MaxCyc=150, Full)/Gen SCF=(maxcycle=400) Pseudo=Read I
 .1206011\MP4SDQ=-213.0714918\CCSD=-212.9846128\CCSD(T)=-213.0382537\RM
 Normal termination of Gaussian 16 at Sun Mar 25 23:47:47 2018.
