 Gaussian 16, Revision A.03,
 Gaussian 16:  ES64L-G16RevA.03 25-Dec-2016

 ----------------------------------------------------------------------
 #P ROCCSD(T)=(maxcyc=150, Full)/Gen 5d 7f SCF=(maxcycles=300) Integral
 (NoXCTest) MaxDisk=500GB Pop=Regular Pseudo=Read Guess=Read
 ----------------------------------------------------------------------

 ---
 MnH
 ---
 Symbolic Z-matrix:
 Charge =  0 Multiplicity = 7

                         Standard orientation:
 ---------------------------------------------------------------------
 Center     Atomic      Atomic             Coordinates (Angstroms)
 Number     Number       Type             X           Y           Z
 ---------------------------------------------------------------------
      1         25           0        0.000000    0.000000    0.046154
      2          1           0        0.000000    0.000000   -1.153846
 ---------------------------------------------------------------------

 SCF Done:  E(ROHF) =  -103.943303346     A.U. after   21 cycles
 E2 =    -0.6218120290D+00 EUMP2 =    -0.10456511537490D+03
 CCSD(T)
 CCSD(T)= -0.10458429474D+03

 The electronic state is 7-SG.
 Alpha  occ. eigenvalues --   -4.15654  -2.80852  -2.79921  -2.79921  -0.68137
 Alpha  occ. eigenvalues --   -0.63589  -0.63589  -0.63460  -0.63460  -0.41131
 Alpha  occ. eigenvalues --   -0.23673
 Alpha virt. eigenvalues --    0.01296   0.01296   0.01894   0.03190   0.05120
 Alpha virt. eigenvalues --    0.05120   0.05739   0.05831   0.05831   0.06150
 Alpha virt. eigenvalues --    0.06150   0.08184   0.14009   0.15491   0.17797

 Mulliken charges and spin densities:
               1          2
     1  Mn   0.528895   5.883250
     2  H   -0.528895   0.116750
 Sum of Mulliken charges =  -0.00000   6.00000

 Dipole moment (field-independent basis, Debye):
    X=              0.0000    Y=              0.0000    Z=             -0.3642  Tot=              0.3642
 Quadrupole moment (field-independent basis, Debye-Ang):
   XX=            -15.9541   YY=            -15.9541   ZZ=            -25.3271
   XY=              0.0000   XZ=              0.0000   YZ=              0.0000

 \\#P ROCCSD(T)=(maxcyc=150, Full)/Gen 5d 7f SCF=(maxcycles=300) Integr
 =-104.5651154\MP4SDQ=-104.5649865\CCSD=-104.5663882\CCSD(T)=-104.58429
 Normal termination of Gaussian 16 at Mon Feb 12 20:45:23 2018.
