 Gaussian 16, Revision A.03,
 Gaussian 16:  ES64L-G16RevA.03 25-Dec-2016

 ----------------------------------------------------------------------
 #P ROCCSD(T)=(maxcyc=150, Full, SaveAmplitudes, ReadAmplitudes)/Gen 5d
  7f SCF=(maxcycles=300) Integral(NoXCTest) MaxDisk=500GB Pop=Regular P
 seudo=Read Guess=Read IOp(5/15=2)
 ----------------------------------------------------------------------

 ---
 CrH
 ---
 Symbolic Z-matrix:
 Charge =  0 Multiplicity = 6

                         Standard orientation:
 ---------------------------------------------------------------------
 Center     Atomic      Atomic             Coordinates (Angstroms)
 Number     Number       Type             X           Y           Z
 ---------------------------------------------------------------------
      1         24           0        0.000000    0.000000    0.064000
      2          1           0        0.000000    0.000000   -1.536000
 ---------------------------------------------------------------------

 SCF Done:  E(ROHF) =  -86.8781655466     A.U. after   27 cycles
 E2 =    -0.5435233153D+00 EUMP2 =    -0.87421688861877D+02
 CCSD(T)
 CCSD(T)= -0.87466047969D+02

 The electronic state is 6-SG.
 Alpha  occ. eigenvalues --   -3.73412  -2.43335  -2.43335  -2.38961  -0.53510
 Alpha  occ. eigenvalues --   -0.53510  -0.50355  -0.50355  -0.41708  -0.25852
 Alpha virt. eigenvalues --    0.01419   0.01419   0.02261   0.02491   0.05693
 Alpha virt. eigenvalues --    0.05693   0.05934   0.07664   0.07664   0.08074
 Alpha virt. eigenvalues --    0.08074   0.08730   0.10297   0.18200   0.21275

 Mulliken charges and spin densities:
               1          2
     1  Cr   0.519751   4.985229
     2  H   -0.519751   0.014771
 Sum of Mulliken charges =  -0.00000   5.00000

 Dipole moment (field-independent basis, Debye):
    X=              0.0000    Y=              0.0000    Z=              2.0323  Tot=              2.0323
 Quadrupole moment (field-independent basis, Debye-Ang):
   XX=            -16.8709   YY=            -16.8709   ZZ=            -23.0855
   XY=              0.0000   XZ=              0.0000   YZ=              0.0000

 \\#P ROCCSD(T)=(maxcyc=150, Full, SaveAmplitudes, ReadAmplitudes)/Gen
 9\CCSD=-87.4484836\CCSD(T)=-87.466048\RMSD=3.896e-09\PG=C*V [C*(H1Cr1)
 Normal termination of Gaussian 16 at Mon Feb 26 08:00:54 2018.
