 Gaussian 16, Revision A.03,
 Gaussian 16:  ES64L-G16RevA.03 25-Dec-2016

 ----------------------------------------------------------------------
 #P ROCCSD(T)=(MaxCyc=150, FrzINGC)/Gen SCF=(maxcycle=400, vshift=200)
 Integral(DKHSO, NoXCTest) Pop=Regular MaxDisk=500GB Guess=Read IOp(5/1
 5=2)
 ----------------------------------------------------------------------

 ---
 FeH
 ---
 Symbolic Z-matrix:
 Charge =  0 Multiplicity = 4

                         Standard orientation:
 ---------------------------------------------------------------------
 Center     Atomic      Atomic             Coordinates (Angstroms)
 Number     Number       Type             X           Y           Z
 ---------------------------------------------------------------------
      1         26           0        0.000000    0.000000    0.048148
      2          1           0        0.000000    0.000000   -1.251852
 ---------------------------------------------------------------------

 SCF Done:  E(ROHF) =  -1271.79670794     A.U. after   32 cycles
 E2 =    -0.8134280904D+00 EUMP2 =    -0.12726101360347D+04
 CCSD(T)
 CCSD(T)= -0.12725920672D+04

 Unable to determine electronic state:  an orbital has unidentified symmetry.
 Alpha  occ. eigenvalues -- -263.56572 -32.34841 -27.41759 -27.41377 -27.41377
 Alpha  occ. eigenvalues --   -4.24480  -2.80080  -2.78192  -2.78192  -0.53740
 Alpha  occ. eigenvalues --   -0.53740  -0.51720  -0.51494  -0.46813  -0.30865
 Alpha virt. eigenvalues --    0.00186   0.02191   0.02191   0.02398   0.03813
 Alpha virt. eigenvalues --    0.05878   0.06274   0.06283   0.06283   0.06283
 Alpha virt. eigenvalues --    0.07229   0.07229   0.08229   0.12997   0.17309

 Mulliken charges and spin densities:
               1          2
     1  Fe   0.300599   2.991811
     2  H   -0.300599   0.008189
 Sum of Mulliken charges =  -0.00000   3.00000

 Dipole moment (field-independent basis, Debye):
    X=             -0.0000    Y=              0.0000    Z=              3.3676  Tot=              3.3676
 Quadrupole moment (field-independent basis, Debye-Ang):
   XX=            -16.6997   YY=            -16.6997   ZZ=            -16.3413
   XY=              0.0000   XZ=             -0.0000   YZ=              0.0000

 \#P ROCCSD(T)=(MaxCyc=150, FrzINGC)/Gen SCF=(maxcycle=400, vshift=200)
 \PMP2-0=-1272.610136\MP4SDQ=-1272.5759333\CCSD=-1272.5617923\CCSD(T)=-
 Normal termination of Gaussian 16 at Thu Mar  8 19:23:00 2018.
