 Gaussian 16, Revision A.03,
 Gaussian 16:  ES64L-G16RevA.03 25-Dec-2016

 ----------------------------------------------------------------------
 #P ROCCSD(T)=(maxcyc=150, Full, SaveAmplitudes, ReadAmplitudes)/Gen 5d
  7f SCF=(maxcycles=300) Integral(NoXCTest) MaxDisk=500GB Pop=Regular P
 seudo=Read Guess=Read IOp(5/15=2)
 ----------------------------------------------------------------------

 ---
 ScO
 ---
 Symbolic Z-matrix:
 Charge =  0 Multiplicity = 2

                         Standard orientation:
 ---------------------------------------------------------------------
 Center     Atomic      Atomic             Coordinates (Angstroms)
 Number     Number       Type             X           Y           Z
 ---------------------------------------------------------------------
      1         21           0        0.000000    0.000000    0.358621
      2          8           0        0.000000    0.000000   -0.941379
 ---------------------------------------------------------------------

 SCF Done:  E(ROHF) =  -61.8819356629     A.U. after   19 cycles
 E2 =    -0.6670299663D+00 EUMP2 =    -0.62548965629226D+02
 CCSD(T)
 CCSD(T)= -0.62577812913D+02

 The electronic state is 2-SG.
 Alpha  occ. eigenvalues --   -2.63586  -1.75964  -1.52094  -1.52094  -1.06669
 Alpha  occ. eigenvalues --   -0.57741  -0.57741  -0.46879  -0.19467
 Alpha virt. eigenvalues --    0.00987   0.00987   0.02039   0.02503   0.03782
 Alpha virt. eigenvalues --    0.03782   0.03798   0.03798   0.03904   0.04776
 Alpha virt. eigenvalues --    0.04776   0.07345   0.10872   0.10872   0.11027

 Mulliken charges and spin densities:
               1          2
     1  Sc   1.191138   1.006522
     2  O   -1.191138  -0.006522
 Sum of Mulliken charges =  -0.00000   1.00000

 Dipole moment (field-independent basis, Debye):
    X=              0.0000    Y=              0.0000    Z=              0.1868  Tot=              0.1868
 Quadrupole moment (field-independent basis, Debye-Ang):
   XX=            -22.7351   YY=            -22.7351   ZZ=            -29.6134
   XY=              0.0000   XZ=              0.0000   YZ=              0.0000

 \\#P ROCCSD(T)=(maxcyc=150, Full, SaveAmplitudes, ReadAmplitudes)/Gen
 66\CCSD=-62.54805\CCSD(T)=-62.5778129\RMSD=1.522e-09\PG=C*V [C*(O1Sc1)
 Normal termination of Gaussian 16 at Tue Feb 20 22:33:47 2018.
