 Gaussian 16, Revision A.03,
 Gaussian 16:  ES64L-G16RevA.03 25-Dec-2016

 ----------------------------------------------------------------------
 #P ROCCSD(T)=(maxcyc=150, Full, SaveAmplitudes, ReadAmplitudes)/Gen 5d
  7f SCF=(maxcycles=300) Integral(NoXCTest) MaxDisk=500GB Pop=Regular P
 seudo=Read Guess=Read
 ----------------------------------------------------------------------

 ---
 ScO
 ---
 Symbolic Z-matrix:
 Charge =  0 Multiplicity = 2

                         Standard orientation:
 ---------------------------------------------------------------------
 Center     Atomic      Atomic             Coordinates (Angstroms)
 Number     Number       Type             X           Y           Z
 ---------------------------------------------------------------------
      1         21           0        0.000000    0.000000    0.524138
      2          8           0        0.000000    0.000000   -1.375862
 ---------------------------------------------------------------------

 SCF Done:  E(ROHF) =  -61.8313953657     A.U. after   16 cycles
 E2 =    -0.7175085691D+00 EUMP2 =    -0.62548903934770D+02
 CCSD(T)
 CCSD(T)= -0.62578235582D+02

 The electronic state is 2-SG.
 Alpha  occ. eigenvalues --   -2.71498  -1.68835  -1.68767  -1.68767  -1.10959
 Alpha  occ. eigenvalues --   -0.40268  -0.36526  -0.36526  -0.27369
 Alpha virt. eigenvalues --   -0.00866  -0.00866   0.00810   0.01816   0.02580
 Alpha virt. eigenvalues --    0.02580   0.02605   0.02605   0.03260   0.03260
 Alpha virt. eigenvalues --    0.03446   0.03909   0.05269   0.05269   0.08881

 Mulliken charges and spin densities:
               1          2
     1  Sc   1.240439   0.985033
     2  O   -1.240439   0.014967
 Sum of Mulliken charges =  -0.00000   1.00000

 Dipole moment (field-independent basis, Debye):
    X=              0.0000    Y=              0.0000    Z=              6.6166  Tot=              6.6166
 Quadrupole moment (field-independent basis, Debye-Ang):
   XX=            -22.0426   YY=            -22.0426   ZZ=            -34.1551
   XY=              0.0000   XZ=              0.0000   YZ=              0.0000

 \\#P ROCCSD(T)=(maxcyc=150, Full, SaveAmplitudes, ReadAmplitudes)/Gen
 313954\PMP2-0=-62.5489039\CCSD=-62.529297\CCSD(T)=-62.5782356\RMSD=2.4
 Normal termination of Gaussian 16 at Wed Feb 21 07:33:31 2018.
