 Gaussian 16, Revision A.03,
 Gaussian 16:  ES64L-G16RevA.03 25-Dec-2016

 ----------------------------------------------------------------------
 #P ROCCSD(T)=(maxcyc=150, Full)/Gen 5d 7f SCF=(maxcycles=300) Integral
 (NoXCTest) MaxDisk=500GB Pop=Regular Pseudo=Read IOp(5/15=2) Guess=Rea
 d
 ----------------------------------------------------------------------

 ---
 ScH
 ---
 Symbolic Z-matrix:
 Charge =  0 Multiplicity = 1

                         Standard orientation:
 ---------------------------------------------------------------------
 Center     Atomic      Atomic             Coordinates (Angstroms)
 Number     Number       Type             X           Y           Z
 ---------------------------------------------------------------------
      1         21           0        0.000000    0.000000    0.095455
      2          1           0        0.000000    0.000000   -2.004545
 ---------------------------------------------------------------------

 SCF Done:  E(ROHF) =  -46.7835874030     A.U. after   10 cycles
 E2 =    -0.4178436653D+00 EUMP2 =    -0.47201431068226D+02
 CCSD(T)
 CCSD(T)= -0.47248284118D+02

 The electronic state is 1-SG.
 Alpha  occ. eigenvalues --   -2.75768  -1.69032  -1.69032  -1.68817  -0.36863
 Alpha  occ. eigenvalues --   -0.24410
 Alpha virt. eigenvalues --    0.00930   0.00930   0.01156   0.02056   0.02809
 Alpha virt. eigenvalues --    0.02809   0.02953   0.02953   0.03023   0.03704
 Alpha virt. eigenvalues --    0.03842   0.03842   0.06470   0.06470   0.07366

 Mulliken charges and spin densities:
               1          2
     1  Sc   0.256924   0.000000
     2  H   -0.256924   0.000000
 Sum of Mulliken charges =  -0.00000   0.00000

 Dipole moment (field-independent basis, Debye):
    X=              0.0000    Y=              0.0000    Z=              2.5649  Tot=              2.5649
 Quadrupole moment (field-independent basis, Debye-Ang):
   XX=            -22.7427   YY=            -22.7427   ZZ=            -29.1574
   XY=              0.0000   XZ=              0.0000   YZ=              0.0000

 P ROCCSD(T)=(maxcyc=150, Full)/Gen 5d 7f SCF=(maxcycles=300) Integral(
 PMP2-0=-47.2014311\MP4SDQ=-47.2274038\CCSD=-47.228065\CCSD(T)=-47.2482
 Normal termination of Gaussian 16 at Wed Feb 14 10:39:52 2018.
