 Gaussian 16, Revision A.03,
 Gaussian 16:  ES64L-G16RevA.03 25-Dec-2016

 ----------------------------------------------------------------------
 #P ROCCSD(T)=(MaxCyc=150, Full)/Gen SCF=(maxcycle=400) Pseudo=Read Int
 egral(NoXCTest) Pop=Regular MaxDisk=500GB Guess=Read IOp(5/15=2)
 ----------------------------------------------------------------------

 ---
 CuH
 ---
 Symbolic Z-matrix:
 Charge =  0 Multiplicity = 1

                         Standard orientation:
 ---------------------------------------------------------------------
 Center     Atomic      Atomic             Coordinates (Angstroms)
 Number     Number       Type             X           Y           Z
 ---------------------------------------------------------------------
      1         29           0        0.000000    0.000000    0.050000
      2          1           0        0.000000    0.000000   -1.450000
 ---------------------------------------------------------------------

 SCF Done:  E(ROHF) =  -196.780581541     A.U. after    7 cycles
 E2 =    -0.1189493404D+01 EUMP2 =    -0.19797007494493D+03
 CCSD(T)
 CCSD(T)= -0.19788760779D+03

 The electronic state is 1-SG.
 Alpha  occ. eigenvalues --   -4.93909  -3.34986  -3.34616  -3.34616  -0.50327
 Alpha  occ. eigenvalues --   -0.49655  -0.49655  -0.49510  -0.49510  -0.33953
 Alpha virt. eigenvalues --    0.00022   0.02549   0.02549   0.02979   0.04253
 Alpha virt. eigenvalues --    0.07739   0.08567   0.08567   0.12115   0.12115
 Alpha virt. eigenvalues --    0.12130   0.12468   0.12468   0.15188   0.18583

 Mulliken charges and spin densities:
               1          2
     1  Cu   0.302199   0.000000
     2  H   -0.302199   0.000000
 Sum of Mulliken charges =  -0.00000   0.00000

 Dipole moment (field-independent basis, Debye):
    X=              0.0000    Y=              0.0000    Z=              4.0092  Tot=              4.0092
 Quadrupole moment (field-independent basis, Debye-Ang):
   XX=            -13.5524   YY=            -13.5524   ZZ=            -15.9809
   XY=              0.0000   XZ=              0.0000   YZ=              0.0000

 P ROCCSD(T)=(MaxCyc=150, Full)/Gen SCF=(maxcycle=400) Pseudo=Read Inte
 2-0=-197.9700749\MP4SDQ=-197.9228692\CCSD=-197.8473019\CCSD(T)=-197.88
 Normal termination of Gaussian 16 at Wed Apr  4 22:42:31 2018.
