 Gaussian 16, Revision A.03,
 Gaussian 16:  ES64L-G16RevA.03 25-Dec-2016

 ----------------------------------------------------------------------
 #P ROCCSD(T)=(MaxCyc=150, Full)/Gen SCF=(maxcycle=400) Pseudo=Read Int
 egral(NoXCTest) Pop=Regular MaxDisk=500GB Guess=Read IOp(5/15=2)
 ----------------------------------------------------------------------

 ---
 CuH
 ---
 Symbolic Z-matrix:
 Charge =  0 Multiplicity = 1

                         Standard orientation:
 ---------------------------------------------------------------------
 Center     Atomic      Atomic             Coordinates (Angstroms)
 Number     Number       Type             X           Y           Z
 ---------------------------------------------------------------------
      1         29           0        0.000000    0.000000    0.050000
      2          1           0        0.000000    0.000000   -1.450000
 ---------------------------------------------------------------------

 SCF Done:  E(ROHF) =  -196.780432436     A.U. after   10 cycles
 E2 =    -0.1164900853D+01 EUMP2 =    -0.19794533328858D+03
 CCSD(T)
 CCSD(T)= -0.19786511592D+03

 The electronic state is 1-SG.
 Alpha  occ. eigenvalues --   -4.93905  -3.34985  -3.34615  -3.34615  -0.50326
 Alpha  occ. eigenvalues --   -0.49653  -0.49653  -0.49509  -0.49509  -0.33952
 Alpha virt. eigenvalues --    0.00087   0.02634   0.02634   0.03257   0.05012
 Alpha virt. eigenvalues --    0.08930   0.08930   0.08961   0.13446   0.13509
 Alpha virt. eigenvalues --    0.13509   0.13885   0.13885   0.19925   0.22174

 Mulliken charges and spin densities:
               1          2
     1  Cu   0.350413   0.000000
     2  H   -0.350413   0.000000
 Sum of Mulliken charges =  -0.00000   0.00000

 Dipole moment (field-independent basis, Debye):
    X=              0.0000    Y=              0.0000    Z=              4.0110  Tot=              4.0110
 Quadrupole moment (field-independent basis, Debye-Ang):
   XX=            -13.5540   YY=            -13.5540   ZZ=            -15.9783
   XY=              0.0000   XZ=              0.0000   YZ=              0.0000

 P ROCCSD(T)=(MaxCyc=150, Full)/Gen SCF=(maxcycle=400) Pseudo=Read Inte
 2-0=-197.9453333\MP4SDQ=-197.9016284\CCSD=-197.8255619\CCSD(T)=-197.86
 Normal termination of Gaussian 16 at Wed Apr  4 19:56:13 2018.
