 Gaussian 16, Revision A.03,
 Gaussian 16:  ES64L-G16RevA.03 25-Dec-2016

 ----------------------------------------------------------------------
 #P ROCCSD(T)=(MaxCyc=150, Full)/Gen SCF=(maxcycle=400) Pseudo=Read Int
 egral(NoXCTest) Pop=Regular MaxDisk=500GB Guess=Read IOp(5/15=2)
 ----------------------------------------------------------------------

 ---
 CuH
 ---
 Symbolic Z-matrix:
 Charge =  0 Multiplicity = 1

                         Standard orientation:
 ---------------------------------------------------------------------
 Center     Atomic      Atomic             Coordinates (Angstroms)
 Number     Number       Type             X           Y           Z
 ---------------------------------------------------------------------
      1         29           0        0.000000    0.000000    0.050000
      2          1           0        0.000000    0.000000   -1.450000
 ---------------------------------------------------------------------

 SCF Done:  E(ROHF) =  -196.777389458     A.U. after   13 cycles
 E2 =    -0.1113234166D+01 EUMP2 =    -0.19789062362448D+03
 CCSD(T)
 CCSD(T)= -0.19781192090D+03

 The electronic state is 1-SG.
 Alpha  occ. eigenvalues --   -4.93943  -3.35021  -3.34645  -3.34645  -0.50327
 Alpha  occ. eigenvalues --   -0.49647  -0.49647  -0.49498  -0.49498  -0.33948
 Alpha virt. eigenvalues --    0.00104   0.02926   0.02926   0.03598   0.05375
 Alpha virt. eigenvalues --    0.10032   0.10288   0.10288   0.17200   0.19617
 Alpha virt. eigenvalues --    0.19617   0.20348   0.20348   0.21318   0.25871

 Mulliken charges and spin densities:
               1          2
     1  Cu   0.367495   0.000000
     2  H   -0.367495   0.000000
 Sum of Mulliken charges =  -0.00000   0.00000

 Dipole moment (field-independent basis, Debye):
    X=              0.0000    Y=              0.0000    Z=              4.0218  Tot=              4.0218
 Quadrupole moment (field-independent basis, Debye-Ang):
   XX=            -13.5640   YY=            -13.5640   ZZ=            -15.9593
   XY=              0.0000   XZ=              0.0000   YZ=              0.0000

 P ROCCSD(T)=(MaxCyc=150, Full)/Gen SCF=(maxcycle=400) Pseudo=Read Inte
 2-0=-197.8906236\MP4SDQ=-197.8512756\CCSD=-197.7744318\CCSD(T)=-197.81
 Normal termination of Gaussian 16 at Wed Apr  4 19:00:29 2018.
