 Gaussian 16, Revision A.03,
 Gaussian 16:  ES64L-G16RevA.03 25-Dec-2016

 ----------------------------------------------------------------------
 #P ROCCSD(T)=(maxcyc=150, Full, SaveAmplitudes, ReadAmplitudes)/Gen 5d
  7f SCF=(maxcycles=300, VShift=400) Integral(NoXCTest) MaxDisk=500GB P
 op=Full Pseudo=Read Guess=Read IOp(5/15=2)
 ----------------------------------------------------------------------

 ---
 MnO
 ---
 Symbolic Z-matrix:
 Charge =  0 Multiplicity = 6

                         Standard orientation:
 ---------------------------------------------------------------------
 Center     Atomic      Atomic             Coordinates (Angstroms)
 Number     Number       Type             X           Y           Z
 ---------------------------------------------------------------------
      1         25           0        0.000000    0.000000    0.387879
      2          8           0        0.000000    0.000000   -1.212121
 ---------------------------------------------------------------------

 SCF Done:  E(ROHF) =  -119.339316165     A.U. after   44 cycles
 E2 =    -0.9092941302D+00 EUMP2 =    -0.12024861029493D+03
 CCSD(T)
 CCSD(T)= -0.12027606321D+03

 The electronic state is 6-SG.
 Alpha  occ. eigenvalues --   -4.15472  -2.74395  -2.74395  -2.73633  -1.14409
 Alpha  occ. eigenvalues --   -0.65055  -0.65055  -0.63234  -0.63234  -0.57466
 Alpha  occ. eigenvalues --   -0.35072  -0.35072  -0.33995
 Alpha virt. eigenvalues --   -0.03304   0.01788   0.01788   0.02277   0.03835
 Alpha virt. eigenvalues --    0.06946   0.06946   0.08304   0.08549   0.08549
 Alpha virt. eigenvalues --    0.09697   0.09697   0.13728   0.13922   0.23448

 Mulliken charges and spin densities:
               1          2
     1  Mn   1.139364   4.855448
     2  O   -1.139364   0.144552
 Sum of Mulliken charges =  -0.00000   5.00000

 Dipole moment (field-independent basis, Debye):
    X=              0.0000    Y=              0.0000    Z=              8.3009  Tot=              8.3009
 Quadrupole moment (field-independent basis, Debye-Ang):
   XX=            -18.6915   YY=            -18.6915   ZZ=            -22.9779
   XY=              0.0000   XZ=              0.0000   YZ=              0.0000

 \\#P ROCCSD(T)=(maxcyc=150, Full, SaveAmplitudes, ReadAmplitudes)/Gen
 4SDQ=-120.2437356\CCSD=-120.2345088\CCSD(T)=-120.2760632\RMSD=9.325e-0
 Normal termination of Gaussian 16 at Sun Mar 18 19:04:03 2018.
