 Gaussian 16, Revision A.03,
 Gaussian 16:  ES64L-G16RevA.03 25-Dec-2016

 ----------------------------------------------------------------------
 #P ROCCSD(T)=(maxcyc=150, Full, SaveAmplitudes, ReadAmplitudes)/Gen 5d
  7f SCF=(maxcycles=300, VShift=400) Integral(NoXCTest) MaxDisk=500GB P
 op=Full Pseudo=Read Guess=Read IOp(5/15=2)
 ----------------------------------------------------------------------

 ---
 MnH
 ---
 Symbolic Z-matrix:
 Charge =  0 Multiplicity = 7

                         Standard orientation:
 ---------------------------------------------------------------------
 Center     Atomic      Atomic             Coordinates (Angstroms)
 Number     Number       Type             X           Y           Z
 ---------------------------------------------------------------------
      1         25           0        0.000000    0.000000    0.050000
      2          1           0        0.000000    0.000000   -1.250000
 ---------------------------------------------------------------------

 SCF Done:  E(ROHF) =  -103.728936678     A.U. after   47 cycles
 E2 =    -0.5912071506D+00 EUMP2 =    -0.10432014382833D+03
 CCSD(T)
 CCSD(T)= -0.10434059470D+03

 The electronic state is 7-SG.
 Alpha  occ. eigenvalues --   -4.14226  -2.76537  -2.76004  -2.76004  -0.66615
 Alpha  occ. eigenvalues --   -0.63547  -0.63547  -0.63351  -0.63351  -0.41748
 Alpha  occ. eigenvalues --   -0.24276
 Alpha virt. eigenvalues --    0.01385   0.01385   0.02145   0.03279   0.05862
 Alpha virt. eigenvalues --    0.05862   0.08520   0.08520   0.08602   0.08951
 Alpha virt. eigenvalues --    0.08951   0.09061   0.14183   0.21584   0.22769

 Mulliken charges and spin densities:
               1          2
     1  Mn   0.453633   5.941882
     2  H   -0.453633   0.058118
 Sum of Mulliken charges =  -0.00000   6.00000

 Dipole moment (field-independent basis, Debye):
    X=              0.0000    Y=              0.0000    Z=             -0.0359  Tot=              0.0359
 Quadrupole moment (field-independent basis, Debye-Ang):
   XX=            -15.9771   YY=            -15.9771   ZZ=            -25.3569
   XY=              0.0000   XZ=              0.0000   YZ=              0.0000

 \\#P ROCCSD(T)=(maxcyc=150, Full, SaveAmplitudes, ReadAmplitudes)/Gen
 4SDQ=-104.3228441\CCSD=-104.3238058\CCSD(T)=-104.3405947\RMSD=9.706e-0
 Normal termination of Gaussian 16 at Sat May  5 07:04:07 2018.
