 Gaussian 16, Revision A.03,
 Gaussian 16:  ES64L-G16RevA.03 25-Dec-2016

 ----------------------------------------------------------------------
 #P ROCCSD(T)=(MaxCyc=150, Full)/Gen SCF=(maxcycle=400) Pseudo=Read Int
 egral(NoXCTest) Pop=Regular MaxDisk=500GB Guess=Read IOp(5/15=2)
 ----------------------------------------------------------------------

 ---
 CuO
 ---
 Symbolic Z-matrix:
 Charge =  0 Multiplicity = 2

                         Standard orientation:
 ---------------------------------------------------------------------
 Center     Atomic      Atomic             Coordinates (Angstroms)
 Number     Number       Type             X           Y           Z
 ---------------------------------------------------------------------
      1         29           0        0.000000    0.000000    0.259459
      2          8           0        0.000000    0.000000   -0.940541
 ---------------------------------------------------------------------

 SCF Done:  E(ROHF) =  -211.569991363     A.U. after   21 cycles
 E2 =    -0.1437717999D+01 EUMP2 =    -0.21300770936188D+03
 CCSD(T)
 CCSD(T)= -0.21290579313D+03

 Unable to determine electronic state:  an orbital has unidentified symmetry.
 Alpha  occ. eigenvalues --   -5.51506  -3.76677  -3.70292  -3.65978  -1.38318
 Alpha  occ. eigenvalues --   -0.88202  -0.84695  -0.75747  -0.70932  -0.70608
 Alpha  occ. eigenvalues --   -0.50283  -0.46359  -0.35313
 Alpha virt. eigenvalues --    0.00584   0.02779   0.02886   0.03389   0.05243
 Alpha virt. eigenvalues --    0.09395   0.09779   0.11926   0.13777   0.13803
 Alpha virt. eigenvalues --    0.13805   0.14008   0.14261   0.18791   0.22066

 Mulliken charges and spin densities:
               1          2
     1  Cu   0.620923   0.471293
     2  O   -0.620923   0.528707
 Sum of Mulliken charges =  -0.00000   1.00000

 Dipole moment (field-independent basis, Debye):
    X=              0.0000    Y=              0.0000    Z=              3.2276  Tot=              3.2276
 Quadrupole moment (field-independent basis, Debye-Ang):
   XX=            -17.7902   YY=            -18.9100   ZZ=            -18.3975
   XY=              0.0000   XZ=              0.0000   YZ=              0.0000

 \\#P ROCCSD(T)=(MaxCyc=150, Full)/Gen SCF=(maxcycle=400) Pseudo=Read I
 .0077094\MP4SDQ=-212.9239561\CCSD=-212.8506955\CCSD(T)=-212.9057931\RM
 Normal termination of Gaussian 16 at Mon Mar 26 15:09:35 2018.
