 Gaussian 16, Revision A.03,
 Gaussian 16:  ES64L-G16RevA.03 25-Dec-2016

 ----------------------------------------------------------------------
 #P ROCCSD(T)=(MaxCyc=150, Full)/Gen SCF=(maxcycle=400) Pseudo=Read Int
 egral(NoXCTest) Pop=Regular MaxDisk=500GB Guess=Read IOp(5/15=2)
 ----------------------------------------------------------------------

 ---
 CuO
 ---
 Symbolic Z-matrix:
 Charge =  0 Multiplicity = 2

                         Standard orientation:
 ---------------------------------------------------------------------
 Center     Atomic      Atomic             Coordinates (Angstroms)
 Number     Number       Type             X           Y           Z
 ---------------------------------------------------------------------
      1         29           0        0.000000    0.000000    0.259459
      2          8           0        0.000000    0.000000   -0.940541
 ---------------------------------------------------------------------

 SCF Done:  E(ROHF) =  -211.565541474     A.U. after   31 cycles
 E2 =    -0.1373586245D+01 EUMP2 =    -0.21293912771960D+03
 CCSD(T)
 CCSD(T)= -0.21283957255D+03

 Unable to determine electronic state:  an orbital has unidentified symmetry.
 Alpha  occ. eigenvalues --   -5.51519  -3.76709  -3.70311  -3.65991  -1.38386
 Alpha  occ. eigenvalues --   -0.88200  -0.84688  -0.75765  -0.70936  -0.70613
 Alpha  occ. eigenvalues --   -0.50276  -0.46348  -0.35334
 Alpha virt. eigenvalues --    0.00624   0.03144   0.03277   0.03730   0.05616
 Alpha virt. eigenvalues --    0.10786   0.11256   0.13262   0.18759   0.19940
 Alpha virt. eigenvalues --    0.19945   0.20898   0.21406   0.21770   0.25678

 Mulliken charges and spin densities:
               1          2
     1  Cu   0.878998   0.453713
     2  O   -0.878998   0.546287
 Sum of Mulliken charges =  -0.00000   1.00000

 Dipole moment (field-independent basis, Debye):
    X=              0.0000    Y=              0.0000    Z=              3.2390  Tot=              3.2390
 Quadrupole moment (field-independent basis, Debye-Ang):
   XX=            -17.7979   YY=            -18.9301   ZZ=            -18.3928
   XY=              0.0000   XZ=              0.0000   YZ=              0.0000

 \\#P ROCCSD(T)=(MaxCyc=150, Full)/Gen SCF=(maxcycle=400) Pseudo=Read I
 .9391277\MP4SDQ=-212.8616886\CCSD=-212.7871412\CCSD(T)=-212.8395725\RM
 Normal termination of Gaussian 16 at Mon Mar 26 12:45:33 2018.
