 Gaussian 16, Revision A.03,
 Gaussian 16:  ES64L-G16RevA.03 25-Dec-2016

 ----------------------------------------------------------------------
 #P ROCCSD(T)=(maxcyc=150, Full)/Gen 5d 7f SCF=(maxcycles=300, NoVarAcc
 , VShift=300) MaxDisk=100GB Pop=Regular Pseudo=Read Guess=Read IOp(5/1
 5=2)
 ----------------------------------------------------------------------

 --
 Mn
 --
 Symbolic Z-matrix:
 Charge =  0 Multiplicity = 6

                         Standard orientation:
 ---------------------------------------------------------------------
 Center     Atomic      Atomic             Coordinates (Angstroms)
 Number     Number       Type             X           Y           Z
 ---------------------------------------------------------------------
      1         25           0        0.000000    0.000000    0.000000
 ---------------------------------------------------------------------

 SCF Done:  E(ROHF) =  -103.238561922     A.U. after   17 cycles
 E2 =    -0.5708741447D+00 EUMP2 =    -0.10380943606647D+03
 CCSD(T)
 CCSD(T)= -0.10383030306D+03

 The electronic state is 6-A1G.
 Alpha  occ. eigenvalues --   -4.13452  -2.75664  -2.75664  -2.75664  -0.63018
 Alpha  occ. eigenvalues --   -0.63018  -0.63018  -0.63018  -0.63018  -0.26824
 Alpha virt. eigenvalues --    0.01848   0.01848   0.01848   0.02663   0.06597
 Alpha virt. eigenvalues --    0.06597   0.06597   0.08966   0.08966   0.08966
 Alpha virt. eigenvalues --    0.08966   0.08966   0.13909   0.24261   0.24261

 Mulliken charges and spin densities:
               1          2
     1  Mn  -0.000000   5.000000
 Sum of Mulliken charges =  -0.00000   5.00000

 Dipole moment (field-independent basis, Debye):
    X=              0.0000    Y=              0.0000    Z=              0.0000  Tot=              0.0000
 Quadrupole moment (field-independent basis, Debye-Ang):
   XX=            -18.8398   YY=            -18.8398   ZZ=            -18.8398
   XY=              0.0000   XZ=              0.0000   YZ=             -0.0000

 1\1\GINC-C506-022\SP\ROCCSD(T)-Full\Gen\Mn1(6)\AANNABE\19-Apr-2018\0\\
 #P ROCCSD(T)=(maxcyc=150, Full)/Gen 5d 7f SCF=(maxcycles=300, NoVarAcc
 , VShift=300) MaxDisk=100GB Pop=Regular Pseudo=Read Guess=Read IOp(5/1
 5=2)\\Mn\\0,6\Mn,0,0.,0.,0.\\Version=ES64L-G16RevA.03\State=6-A1G\HF=-
 103.2385619\MP2=-103.8094361\MP3=-103.8093226\PUHF=-103.2385619\PMP2-0
 =-103.8094361\MP4SDQ=-103.8126955\CCSD=-103.8126907\CCSD(T)=-103.83030
 31\RMSD=2.026e-09\PG=OH [O(Mn1)]\\@

 Normal termination of Gaussian 16 at Thu Apr 19 10:09:27 2018.
