 Gaussian 16, Revision A.03,
 Gaussian 16:  ES64L-G16RevA.03 25-Dec-2016

 ----------------------------------------------------------------------
 #P ROCCSD(T)=(maxcyc=150, Window=(7,0), SaveAmplitudes, ReadAmplitudes
 )/Gen 5d 7f SCF=(maxcycles=300) Integral(NoXCTest, DKHSO) MaxDisk=500G
 B Pop=Regular Guess=Read IOp(5/15=2)
 ----------------------------------------------------------------------

 ---
 ScO
 ---
 Symbolic Z-matrix:
 Charge =  0 Multiplicity = 2

                         Standard orientation:
 ---------------------------------------------------------------------
 Center     Atomic      Atomic             Coordinates (Angstroms)
 Number     Number       Type             X           Y           Z
 ---------------------------------------------------------------------
      1         21           0        0.000000    0.000000    0.468966
      2          8           0        0.000000    0.000000   -1.231034
 ---------------------------------------------------------------------

 SCF Done:  E(ROHF) =  -838.272337921     A.U. after    1 cycles
 E2 =    -0.6568838090D+00 EUMP2 =    -0.83892922173020D+03
 CCSD(T)
 CCSD(T)= -0.83895639688D+03

 The electronic state is 2-SG.
 Alpha  occ. eigenvalues -- -166.88021 -20.48276 -19.33033 -15.75269 -15.75269
 Alpha  occ. eigenvalues --  -15.75135  -2.65075  -1.66068  -1.63187  -1.63187
 Alpha  occ. eigenvalues --   -1.11295  -0.42683  -0.41014  -0.41014  -0.25287
 Alpha virt. eigenvalues --   -0.00036  -0.00036   0.01449   0.02232   0.03538
 Alpha virt. eigenvalues --    0.03538   0.03580   0.03580   0.04204   0.04204
 Alpha virt. eigenvalues --    0.04390   0.05464   0.08162   0.08162   0.10505

 Mulliken charges and spin densities:
               1          2
     1  Sc   1.272109   0.975267
     2  O   -1.272109   0.024733
 Sum of Mulliken charges =  -0.00000   1.00000

 Dipole moment (field-independent basis, Debye):
    X=              0.0000    Y=              0.0000    Z=              4.8750  Tot=              4.8750
 Quadrupole moment (field-independent basis, Debye-Ang):
   XX=            -22.3390   YY=            -22.3390   ZZ=            -33.1145
   XY=              0.0000   XZ=              0.0000   YZ=              0.0000

 1\1\GINC-C483-114\SP\ROCCSD(T)-RW\Gen\O1Sc1(2)\AANNABE\20-Feb-2018\0\\
 #P ROCCSD(T)=(maxcyc=150, Window=(7,0), SaveAmplitudes, ReadAmplitudes
 )/Gen 5d 7f SCF=(maxcycles=300) Integral(NoXCTest, DKHSO) MaxDisk=500G
 B Pop=Regular Guess=Read IOp(5/15=2)\\ScO\\0,2\Sc,0,0.,0.,0.\O,0,0.,0.
 ,1.7\\Version=ES64L-G16RevA.03\State=2-SG\HF=-838.2723379\MP2=-838.929
 2217\MP3=-838.8990829\PUHF=-838.2723379\PMP2-0=-838.9292217\MP4SDQ=-83
 8.9389257\CCSD=-838.917731\CCSD(T)=-838.9563969\RMSD=2.701e-10\PG=C*V
 [C*(O1Sc1)]\\@

 Normal termination of Gaussian 16 at Tue Feb 20 19:45:13 2018.
