 Gaussian 16, Revision A.03,
 Gaussian 16:  ES64L-G16RevA.03 25-Dec-2016

 ----------------------------------------------------------------------
 #P ROCCSD(T)=(MaxCyc=150, Full)/Gen SCF=(maxcycle=400, vshift=200) Pse
 udo=Read Integral(NoXCTest) Pop=Regular MaxDisk=500GB
 ----------------------------------------------------------------------

 ---
 ZnO
 ---
 Symbolic Z-matrix:
 Charge =  0 Multiplicity = 1

                         Standard orientation:
 ---------------------------------------------------------------------
 Center     Atomic      Atomic             Coordinates (Angstroms)
 Number     Number       Type             X           Y           Z
 ---------------------------------------------------------------------
      1         30           0        0.000000    0.000000    0.400000
      2          8           0        0.000000    0.000000   -1.500000
 ---------------------------------------------------------------------

 SCF Done:  E(ROHF) =  -240.895799374     A.U. after   19 cycles
 E2 =    -0.1372656931D+01 EUMP2 =    -0.24226845630469D+03
 CCSD(T)
 CCSD(T)= -0.24222494748D+03

 The electronic state is 1-SG.
 Alpha  occ. eigenvalues --   -5.89950  -3.97887  -3.97887  -3.97832  -1.16410
 Alpha  occ. eigenvalues --   -0.82232  -0.82232  -0.82081  -0.82081  -0.81072
 Alpha  occ. eigenvalues --   -0.42790  -0.42790  -0.35537
 Alpha virt. eigenvalues --   -0.04310   0.02274   0.02274   0.02503   0.04084
 Alpha virt. eigenvalues --    0.07396   0.07396   0.11719   0.16572   0.16958
 Alpha virt. eigenvalues --    0.17812   0.17812   0.19817   0.19817   0.23207

 Mulliken charges and spin densities:
               1          2
     1  Zn   0.755466   0.000000
     2  O   -0.755466   0.000000
 Sum of Mulliken charges =  -0.00000   0.00000

 Dipole moment (field-independent basis, Debye):
    X=              0.0000    Y=              0.0000    Z=              6.1903  Tot=              6.1903
 Quadrupole moment (field-independent basis, Debye-Ang):
   XX=            -18.5565   YY=            -18.5565   ZZ=            -22.0634
   XY=              0.0000   XZ=              0.0000   YZ=              0.0000

 P ROCCSD(T)=(MaxCyc=150, Full)/Gen SCF=(maxcycle=400, vshift=200) Pseu
 84563\MP4SDQ=-242.2079514\CCSD=-242.1749206\CCSD(T)=-242.2249475\RMSD=
 Normal termination of Gaussian 16 at Fri Apr 13 21:46:51 2018.
