 Gaussian 16, Revision A.03,
 Gaussian 16:  ES64L-G16RevA.03 25-Dec-2016

 ----------------------------------------------------------------------
 #P ROCCSD(T)=(MaxCyc=150, Full)/Gen SCF=(maxcycle=400, vshift=200) Pse
 udo=Read Integral(NoXCTest) Pop=Regular MaxDisk=500GB
 ----------------------------------------------------------------------

 ---
 ZnO
 ---
 Symbolic Z-matrix:
 Charge =  0 Multiplicity = 1

                         Standard orientation:
 ---------------------------------------------------------------------
 Center     Atomic      Atomic             Coordinates (Angstroms)
 Number     Number       Type             X           Y           Z
 ---------------------------------------------------------------------
      1         30           0        0.000000    0.000000    0.400000
      2          8           0        0.000000    0.000000   -1.500000
 ---------------------------------------------------------------------

 SCF Done:  E(ROHF) =  -240.893070244     A.U. after   19 cycles
 E2 =    -0.1305277195D+01 EUMP2 =    -0.24219834743882D+03
 CCSD(T)
 CCSD(T)= -0.24215726397D+03

 The electronic state is 1-SG.
 Alpha  occ. eigenvalues --   -5.89970  -3.97910  -3.97910  -3.97859  -1.16446
 Alpha  occ. eigenvalues --   -0.82248  -0.82248  -0.82093  -0.82093  -0.81093
 Alpha  occ. eigenvalues --   -0.42771  -0.42771  -0.35557
 Alpha virt. eigenvalues --   -0.04326   0.02476   0.02476   0.02739   0.04533
 Alpha virt. eigenvalues --    0.08450   0.08450   0.13147   0.17404   0.21526
 Alpha virt. eigenvalues --    0.22878   0.22878   0.24697   0.24697   0.30064

 Mulliken charges and spin densities:
               1          2
     1  Zn   0.796092   0.000000
     2  O   -0.796092   0.000000
 Sum of Mulliken charges =  -0.00000   0.00000

 Dipole moment (field-independent basis, Debye):
    X=              0.0000    Y=              0.0000    Z=              6.2043  Tot=              6.2043
 Quadrupole moment (field-independent basis, Debye-Ang):
   XX=            -18.5690   YY=            -18.5690   ZZ=            -22.0615
   XY=              0.0000   XZ=              0.0000   YZ=              0.0000

 P ROCCSD(T)=(MaxCyc=150, Full)/Gen SCF=(maxcycle=400, vshift=200) Pseu
 83474\MP4SDQ=-242.1433148\CCSD=-242.1098025\CCSD(T)=-242.157264\RMSD=7
 Normal termination of Gaussian 16 at Fri Apr 13 19:25:41 2018.
