 Gaussian 16, Revision A.03,
 Gaussian 16:  ES64L-G16RevA.03 25-Dec-2016

 ----------------------------------------------------------------------
 #P ROCCSD(T)=(MaxCyc=150, Full)/Gen SCF=(maxcycle=400, vshift=200) Pse
 udo=Read Integral(NoXCTest) Pop=Regular MaxDisk=500GB Guess=Read IOp(5
 /15=2)
 ----------------------------------------------------------------------

 ---
 CuO
 ---
 Symbolic Z-matrix:
 Charge =  0 Multiplicity = 2

                         Standard orientation:
 ---------------------------------------------------------------------
 Center     Atomic      Atomic             Coordinates (Angstroms)
 Number     Number       Type             X           Y           Z
 ---------------------------------------------------------------------
      1         29           0        0.000000    0.000000    0.324324
      2          8           0        0.000000    0.000000   -1.175676
 ---------------------------------------------------------------------

 SCF Done:  E(ROHF) =  -210.989435543     A.U. after   27 cycles
 E2 =    -0.1307743245D+01 EUMP2 =    -0.21229717878820D+03
 CCSD(T)
 CCSD(T)= -0.21222724580D+03

 Unable to determine electronic state:  an orbital has unidentified symmetry.
 Alpha  occ. eigenvalues --   -5.28895  -3.46753  -3.45210  -3.44542  -1.28880
 Alpha  occ. eigenvalues --   -0.64833  -0.61278  -0.59319  -0.54750  -0.54749
 Alpha  occ. eigenvalues --   -0.48111  -0.42605  -0.38205
 Alpha virt. eigenvalues --   -0.00512   0.03005   0.03173   0.04016   0.05024
 Alpha virt. eigenvalues --    0.10742   0.11177   0.13731   0.19383   0.19881
 Alpha virt. eigenvalues --    0.19902   0.21434   0.21457   0.22436   0.26022

 Mulliken charges and spin densities:
               1          2
     1  Cu   0.865248   0.050412
     2  O   -0.865248   0.949588
 Sum of Mulliken charges =   0.00000   1.00000

 Dipole moment (field-independent basis, Debye):
    X=              0.0000    Y=              0.0000    Z=              4.8595  Tot=              4.8595
 Quadrupole moment (field-independent basis, Debye-Ang):
   XX=            -16.2351   YY=            -17.7523   ZZ=            -18.9047
   XY=              0.0000   XZ=              0.0000   YZ=              0.0000

 \\#P ROCCSD(T)=(MaxCyc=150, Full)/Gen SCF=(maxcycle=400, vshift=200) P
 \PMP2-0=-212.2971788\MP4SDQ=-212.2605555\CCSD=-212.177067\CCSD(T)=-212
 Normal termination of Gaussian 16 at Sat May  5 21:36:16 2018.
