 Gaussian 16, Revision A.03,
 Gaussian 16:  ES64L-G16RevA.03 25-Dec-2016

 ----------------------------------------------------------------------
 #P ROCCSD(T)=(MaxCyc=150, Full)/Gen SCF=(maxcycle=400, vshift=200) Pse
 udo=Read Integral(NoXCTest) Pop=Regular MaxDisk=500GB Guess=Read IOp(5
 /15=2)
 ----------------------------------------------------------------------

 ---
 CuO
 ---
 Symbolic Z-matrix:
 Charge =  0 Multiplicity = 2

                         Standard orientation:
 ---------------------------------------------------------------------
 Center     Atomic      Atomic             Coordinates (Angstroms)
 Number     Number       Type             X           Y           Z
 ---------------------------------------------------------------------
      1         29           0        0.000000    0.000000    0.324324
      2          8           0        0.000000    0.000000   -1.175676
 ---------------------------------------------------------------------

 SCF Done:  E(ROHF) =  -210.993592937     A.U. after   20 cycles
 E2 =    -0.1372005789D+01 EUMP2 =    -0.21236559872614D+03
 CCSD(T)
 CCSD(T)= -0.21229283092D+03

 Unable to determine electronic state:  an orbital has unidentified symmetry.
 Alpha  occ. eigenvalues --   -5.28885  -3.46724  -3.45189  -3.44526  -1.28825
 Alpha  occ. eigenvalues --   -0.64838  -0.61283  -0.59304  -0.54754  -0.54753
 Alpha  occ. eigenvalues --   -0.48111  -0.42606  -0.38190
 Alpha virt. eigenvalues --   -0.00525   0.02664   0.02799   0.03599   0.04728
 Alpha virt. eigenvalues --    0.09220   0.09558   0.12040   0.13639   0.13651
 Alpha virt. eigenvalues --    0.14267   0.14301   0.14692   0.19145   0.21689

 Mulliken charges and spin densities:
               1          2
     1  Cu   0.705174   0.054475
     2  O   -0.705174   0.945525
 Sum of Mulliken charges =  -0.00000   1.00000

 Dipole moment (field-independent basis, Debye):
    X=              0.0000    Y=              0.0000    Z=              4.8450  Tot=              4.8450
 Quadrupole moment (field-independent basis, Debye-Ang):
   XX=            -16.2258   YY=            -17.7265   ZZ=            -18.9162
   XY=              0.0000   XZ=              0.0000   YZ=              0.0000

 \\#P ROCCSD(T)=(MaxCyc=150, Full)/Gen SCF=(maxcycle=400, vshift=200) P
 \PMP2-0=-212.3655987\MP4SDQ=-212.3226596\CCSD=-212.2400467\CCSD(T)=-21
 Normal termination of Gaussian 16 at Sun May  6 00:05:59 2018.
