 Gaussian 16, Revision A.03,
 Gaussian 16:  ES64L-G16RevA.03 25-Dec-2016

 ----------------------------------------------------------------------
 #P ROCCSD(T)=(maxcyc=150, Full, SaveAmplitudes, ReadAmplitudes)/Gen 5d
  7f SCF=(maxcycles=300) Integral(NoXCTest) MaxDisk=500GB Pop=Regular P
 seudo=Read Guess=Read IOp(5/15=2)
 ----------------------------------------------------------------------

 ---
 CrH
 ---
 Symbolic Z-matrix:
 Charge =  0 Multiplicity = 6

                         Standard orientation:
 ---------------------------------------------------------------------
 Center     Atomic      Atomic             Coordinates (Angstroms)
 Number     Number       Type             X           Y           Z
 ---------------------------------------------------------------------
      1         24           0        0.000000    0.000000    0.048000
      2          1           0        0.000000    0.000000   -1.152000
 ---------------------------------------------------------------------

 SCF Done:  E(ROHF) =  -86.7784566155     A.U. after   37 cycles
 E2 =    -0.5985247757D+00 EUMP2 =    -0.87376981391252D+02
 CCSD(T)
 CCSD(T)= -0.87400600322D+02

 The electronic state is 6-SG.
 Alpha  occ. eigenvalues --   -3.58819  -2.34837  -2.34837  -2.33526  -0.46421
 Alpha  occ. eigenvalues --   -0.45603  -0.45603  -0.42727  -0.42727  -0.25155
 Alpha virt. eigenvalues --    0.01741   0.01741   0.01888   0.02391   0.06177
 Alpha virt. eigenvalues --    0.06199   0.06199   0.07874   0.07874   0.08112
 Alpha virt. eigenvalues --    0.08112   0.08113   0.09934   0.19718   0.22095

 Mulliken charges and spin densities:
               1          2
     1  Cr   0.650900   5.015667
     2  H   -0.650900  -0.015667
 Sum of Mulliken charges =  -0.00000   5.00000

 Dipole moment (field-independent basis, Debye):
    X=              0.0000    Y=              0.0000    Z=              1.9568  Tot=              1.9568
 Quadrupole moment (field-independent basis, Debye-Ang):
   XX=            -16.5739   YY=            -16.5739   ZZ=            -18.8151
   XY=              0.0000   XZ=              0.0000   YZ=              0.0000

 \\#P ROCCSD(T)=(maxcyc=150, Full, SaveAmplitudes, ReadAmplitudes)/Gen
 64\CCSD=-87.3795594\CCSD(T)=-87.4006003\RMSD=8.209e-09\PG=C*V [C*(H1Cr
 Normal termination of Gaussian 16 at Sun Feb 25 20:42:04 2018.
