 Gaussian 16, Revision A.03,
 Gaussian 16:  ES64L-G16RevA.03 25-Dec-2016

 ----------------------------------------------------------------------
 #P ROCCSD(T)=(maxcyc=150, Window=(6,0), SaveAmplitudes, ReadAmplitudes
 )/Gen 5d 7f SCF=(maxcycles=300) Integral(NoXCTest, DKHSO) MaxDisk=500G
 B Pop=Regular Guess=Read
 ----------------------------------------------------------------------

 ---
 MnH
 ---
 Symbolic Z-matrix:
 Charge =  0 Multiplicity = 7

                         Standard orientation:
 ---------------------------------------------------------------------
 Center     Atomic      Atomic             Coordinates (Angstroms)
 Number     Number       Type             X           Y           Z
 ---------------------------------------------------------------------
      1         25           0        0.000000    0.000000    0.069231
      2          1           0        0.000000    0.000000   -1.730769
 ---------------------------------------------------------------------

 SCF Done:  E(ROHF) =  -1157.94783463     A.U. after   18 cycles
 E2 =    -0.5810918860D+00 EUMP2 =    -0.11585289265117D+04
 CCSD(T)
 CCSD(T)= -0.11585443270D+04

 The electronic state is 7-SG.
 Alpha  occ. eigenvalues -- -242.50465 -29.60762 -24.96220 -24.96220 -24.96143
 Alpha  occ. eigenvalues --   -4.09699  -2.75016  -2.75016  -2.74782  -0.64621
 Alpha  occ. eigenvalues --   -0.64621  -0.64110  -0.63885  -0.63885  -0.40145
 Alpha  occ. eigenvalues --   -0.26426
 Alpha virt. eigenvalues --    0.01124   0.01124   0.02172   0.02899   0.04998
 Alpha virt. eigenvalues --    0.04998   0.05630   0.05790   0.05790   0.06196
 Alpha virt. eigenvalues --    0.06196   0.09248   0.13007   0.13975   0.18066

 Mulliken charges and spin densities:
               1          2
     1  Mn   0.366563   5.953190
     2  H   -0.366563   0.046810
 Sum of Mulliken charges =  -0.00000   6.00000

 Dipole moment (field-independent basis, Debye):
    X=              0.0000    Y=              0.0000    Z=              1.6492  Tot=              1.6492
 Quadrupole moment (field-independent basis, Debye-Ang):
   XX=            -16.5479   YY=            -16.5479   ZZ=            -27.1329
   XY=              0.0000   XZ=              0.0000   YZ=              0.0000

 1\1\GINC-C504-081\SP\ROCCSD(T)-RW\Gen\H1Mn1(7)\AANNABE\26-Feb-2018\0\\
 #P ROCCSD(T)=(maxcyc=150, Window=(6,0), SaveAmplitudes, ReadAmplitudes
 )/Gen 5d 7f SCF=(maxcycles=300) Integral(NoXCTest, DKHSO) MaxDisk=500G
 B Pop=Regular Guess=Read\\MnH\\0,7\Mn,0,0.,0.,0.\H,0,0.,0.,1.8\\Versio
 n=ES64L-G16RevA.03\State=7-SG\HF=-1157.9478346\MP2=-1158.5289265\PUHF=
 -1157.9478346\PMP2-0=-1158.5289265\CCSD=-1158.5289808\CCSD(T)=-1158.54
 4327\RMSD=7.661e-09\PG=C*V [C*(H1Mn1)]\\@

 Normal termination of Gaussian 16 at Mon Feb 26 03:02:58 2018.
