 Gaussian 16, Revision A.03,
 Gaussian 16:  ES64L-G16RevA.03 25-Dec-2016

 ----------------------------------------------------------------------
 #P ROCCSD(T)=(maxcyc=150, Full)/Gen 5d 7f SCF=(maxcycles=300) MaxDisk=
 500GB Pop=Regular Pseudo=Read Guess=Read
 ----------------------------------------------------------------------

 --
 Sc
 --
 Symbolic Z-matrix:
 Charge =  0 Multiplicity = 2

                         Standard orientation:
 ---------------------------------------------------------------------
 Center     Atomic      Atomic             Coordinates (Angstroms)
 Number     Number       Type             X           Y           Z
 ---------------------------------------------------------------------
      1         21           0        0.000000    0.000000    0.000000
 ---------------------------------------------------------------------

 SCF Done:  E(ROHF) =  -46.2567393019     A.U. after   17 cycles
 E2 =    -0.3702128222D+00 EUMP2 =    -0.46626952124092D+02
 CCSD(T)
 CCSD(T)= -0.46663676515D+02

 Unable to determine electronic state:  an orbital has unidentified symmetry.
 Alpha  occ. eigenvalues --   -2.66402  -1.62807  -1.62807  -1.58962  -0.34369
 Alpha  occ. eigenvalues --   -0.21674
 Alpha virt. eigenvalues --    0.01263   0.01359   0.01359   0.02276   0.03915
 Alpha virt. eigenvalues --    0.03924   0.03924   0.03945   0.04008   0.04814
 Alpha virt. eigenvalues --    0.04941   0.04941   0.10226   0.10549   0.10549

 Mulliken charges and spin densities:
               1          2
     1  Sc  -0.000000   1.000000
 Sum of Mulliken charges =  -0.00000   1.00000

 Dipole moment (field-independent basis, Debye):
    X=              0.0000    Y=             -0.0000    Z=             -0.0000  Tot=              0.0000
 Quadrupole moment (field-independent basis, Debye-Ang):
   XX=            -23.1640   YY=            -23.1640   ZZ=            -22.8528
   XY=              0.0000   XZ=             -0.0000   YZ=              0.0000

 1\1\GINC-C455-031\SP\ROCCSD(T)-Full\Gen\Sc1(2)\AANNABE\16-Feb-2018\0\\
 #P ROCCSD(T)=(maxcyc=150, Full)/Gen 5d 7f SCF=(maxcycles=300) MaxDisk=
 500GB Pop=Regular Pseudo=Read Guess=Read\\Sc\\0,2\Sc,0,0.,0.,0.\\Versi
 on=ES64L-G16RevA.03\HF=-46.2567393\MP2=-46.6269521\MP3=-46.6488769\PUH
 F=-46.2567393\PMP2-0=-46.6269521\MP4SDQ=-46.6488605\CCSD=-46.6491114\C
 CSD(T)=-46.6636765\RMSD=7.992e-09\PG=OH [O(Sc1)]\\@

 Normal termination of Gaussian 16 at Fri Feb 16 11:46:58 2018.
