 Gaussian 16, Revision A.03,
 Gaussian 16:  ES64L-G16RevA.03 25-Dec-2016

 ----------------------------------------------------------------------
 #P ROCCSD(T)=(maxcyc=150, Full, SaveAmplitudes, ReadAmplitudes)/Gen 5d
  7f SCF=(maxcycles=300) Integral(NoXCTest, DKHSO) MaxDisk=500GB Pop=Re
 gular Guess=Read IOp(5/15=2)
 ----------------------------------------------------------------------

 ---
 TiO
 ---
 Symbolic Z-matrix:
 Charge =  0 Multiplicity = 3

                         Standard orientation:
 ---------------------------------------------------------------------
 Center     Atomic      Atomic             Coordinates (Angstroms)
 Number     Number       Type             X           Y           Z
 ---------------------------------------------------------------------
      1         22           0        0.000000    0.000000    0.480000
      2          8           0        0.000000    0.000000   -1.320000
 ---------------------------------------------------------------------

 SCF Done:  E(ROHF) =  -927.680635506     A.U. after   21 cycles
 E2 =    -0.1162033758D+01 EUMP2 =    -0.92884266926408D+03
 CCSD(T)
 CCSD(T)= -0.92887043359D+03

 Unable to determine electronic state:  an orbital has unidentified symmetry.
 Alpha  occ. eigenvalues -- -184.50859 -21.78007 -20.49492 -17.94610 -17.94610
 Alpha  occ. eigenvalues --  -17.94457  -3.03639  -1.94506  -1.94506  -1.90940
 Alpha  occ. eigenvalues --   -1.12709  -0.50217  -0.43343  -0.39480  -0.39480
 Alpha  occ. eigenvalues --   -0.28761
 Alpha virt. eigenvalues --   -0.00470  -0.00470   0.00796   0.02233   0.03584
 Alpha virt. eigenvalues --    0.03584   0.04151   0.04682   0.05077   0.05923
 Alpha virt. eigenvalues --    0.05923   0.06174   0.08535   0.10805   0.11882

 Mulliken charges and spin densities:
               1          2
     1  Ti   0.959645   1.988215
     2  O   -0.959645   0.011785
 Sum of Mulliken charges =  -0.00000   2.00000

 Dipole moment (field-independent basis, Debye):
    X=              0.0000    Y=              0.0000    Z=              6.0688  Tot=              6.0688
 Quadrupole moment (field-independent basis, Debye-Ang):
   XX=            -22.0441   YY=            -22.0441   ZZ=            -30.8206
   XY=             -0.0000   XZ=              0.0000   YZ=              0.0000

 \\#P ROCCSD(T)=(maxcyc=150, Full, SaveAmplitudes, ReadAmplitudes)/Gen
 28.8171234\CCSD(T)=-928.8704336\RMSD=8.457e-09\PG=C*V [C*(O1Ti1)]\\@
 Normal termination of Gaussian 16 at Wed Mar  7 00:33:18 2018.
