 Gaussian 16, Revision A.03,
 Gaussian 16:  ES64L-G16RevA.03 25-Dec-2016

 ----------------------------------------------------------------------
 #P ROCCSD(T)=(maxcyc=150, Full)/Gen 5d 7f SCF=(maxcycles=300) Integral
 (NoXCTest) MaxDisk=500GB Pop=Regular Pseudo=Read IOp(5/15=2) Guess=Rea
 d
 ----------------------------------------------------------------------

 ---
 ScH
 ---
 Symbolic Z-matrix:
 Charge =  0 Multiplicity = 1

                         Standard orientation:
 ---------------------------------------------------------------------
 Center     Atomic      Atomic             Coordinates (Angstroms)
 Number     Number       Type             X           Y           Z
 ---------------------------------------------------------------------
      1         21           0        0.000000    0.000000    0.072727
      2          1           0        0.000000    0.000000   -1.527273
 ---------------------------------------------------------------------

 SCF Done:  E(ROHF) =  -46.7835014341     A.U. after    9 cycles
 E2 =    -0.4366647410D+00 EUMP2 =    -0.47220166175058D+02
 CCSD(T)
 CCSD(T)= -0.47259897484D+02

 The electronic state is 1-SG.
 Alpha  occ. eigenvalues --   -2.73342  -1.64436  -1.63968  -1.63968  -0.43065
 Alpha  occ. eigenvalues --   -0.22586
 Alpha virt. eigenvalues --    0.01171   0.01171   0.01520   0.01663   0.02610
 Alpha virt. eigenvalues --    0.02610   0.02639   0.02639   0.02666   0.04095
 Alpha virt. eigenvalues --    0.04134   0.04134   0.06960   0.07141   0.07141

 Mulliken charges and spin densities:
               1          2
     1  Sc   0.373964   0.000000
     2  H   -0.373964   0.000000
 Sum of Mulliken charges =   0.00000   0.00000

 Dipole moment (field-independent basis, Debye):
    X=              0.0000    Y=              0.0000    Z=              0.9013  Tot=              0.9013
 Quadrupole moment (field-independent basis, Debye-Ang):
   XX=            -23.2232   YY=            -23.2232   ZZ=            -25.4448
   XY=              0.0000   XZ=              0.0000   YZ=              0.0000

 P ROCCSD(T)=(maxcyc=150, Full)/Gen 5d 7f SCF=(maxcycles=300) Integral(
 PMP2-0=-47.2201662\MP4SDQ=-47.2406091\CCSD=-47.2404375\CCSD(T)=-47.259
 Normal termination of Gaussian 16 at Wed Feb 14 02:59:12 2018.
