 Gaussian 16, Revision A.03,
 Gaussian 16:  ES64L-G16RevA.03 25-Dec-2016

 ----------------------------------------------------------------------
 #P ROCCSD(T)=(MaxCyc=150, Full)/Gen SCF=(maxcycle=400) Integral(DKHSO,
  NoXCTest) Pop=Regular MaxDisk=500GB Guess=Read IOp(5/15=2)
 ----------------------------------------------------------------------

 ---
 FeH
 ---
 Symbolic Z-matrix:
 Charge =  0 Multiplicity = 4

                         Standard orientation:
 ---------------------------------------------------------------------
 Center     Atomic      Atomic             Coordinates (Angstroms)
 Number     Number       Type             X           Y           Z
 ---------------------------------------------------------------------
      1         26           0        0.000000    0.000000    0.066667
      2          1           0        0.000000    0.000000   -1.733333
 ---------------------------------------------------------------------

 SCF Done:  E(ROHF) =  -1271.81630195     A.U. after   65 cycles
 E2 =    -0.1155222433D+01 EUMP2 =    -0.12729715243836D+04
 CCSD(T)
 CCSD(T)= -0.12729607240D+04

 Unable to determine electronic state:  an orbital has unidentified symmetry.
 Alpha  occ. eigenvalues -- -263.52684 -32.29885 -27.36821 -27.36821 -27.36635
 Alpha  occ. eigenvalues --   -4.19686  -2.74731  -2.74352  -2.74352  -0.48763
 Alpha  occ. eigenvalues --   -0.48763  -0.48445  -0.43467  -0.42716  -0.31778
 Alpha virt. eigenvalues --   -0.00852   0.02370   0.02370   0.03373   0.03867
 Alpha virt. eigenvalues --    0.08402   0.08402   0.09473   0.10107   0.10149
 Alpha virt. eigenvalues --    0.10381   0.10381   0.11021   0.17033   0.22762

 Mulliken charges and spin densities:
               1          2
     1  Fe   0.429530   2.998758
     2  H   -0.429530   0.001242
 Sum of Mulliken charges =  -0.00000   3.00000

 Dipole moment (field-independent basis, Debye):
    X=              0.0000    Y=              0.0000    Z=              4.9820  Tot=              4.9820
 Quadrupole moment (field-independent basis, Debye-Ang):
   XX=            -15.6225   YY=            -15.6225   ZZ=            -19.2696
   XY=              0.0000   XZ=              0.0000   YZ=              0.0000

 \\#P ROCCSD(T)=(MaxCyc=150, Full)/Gen SCF=(maxcycle=400) Integral(DKHS
 715244\MP4SDQ=-1272.941148\CCSD=-1272.9333669\CCSD(T)=-1272.960724\RMS
 Normal termination of Gaussian 16 at Wed Mar  7 11:38:41 2018.
