 Gaussian 16, Revision A.03,
 Gaussian 16:  ES64L-G16RevA.03 25-Dec-2016

 ----------------------------------------------------------------------
 #P ROCCSD(T)=(MaxCyc=150, Full)/Gen SCF=(maxcycle=400) Integral(DKHSO,
  NoXCTest) Pop=Regular MaxDisk=500GB Guess=Read IOp(5/15=2)
 ----------------------------------------------------------------------

 ---
 FeH
 ---
 Symbolic Z-matrix:
 Charge =  0 Multiplicity = 4

                         Standard orientation:
 ---------------------------------------------------------------------
 Center     Atomic      Atomic             Coordinates (Angstroms)
 Number     Number       Type             X           Y           Z
 ---------------------------------------------------------------------
      1         26           0        0.000000    0.000000    0.066667
      2          1           0        0.000000    0.000000   -1.733333
 ---------------------------------------------------------------------

 SCF Done:  E(ROHF) =  -1271.81799346     A.U. after   48 cycles
 E2 =    -0.1205717653D+01 EUMP2 =    -0.12730237111175D+04
 CCSD(T)
 CCSD(T)= -0.12730110971D+04

 Unable to determine electronic state:  an orbital has unidentified symmetry.
 Alpha  occ. eigenvalues -- -263.52679 -32.29865 -27.36799 -27.36799 -27.36613
 Alpha  occ. eigenvalues --   -4.19676  -2.74721  -2.74343  -2.74343  -0.48767
 Alpha  occ. eigenvalues --   -0.48767  -0.48450  -0.43474  -0.42725  -0.31780
 Alpha virt. eigenvalues --   -0.00862   0.02129   0.02129   0.03088   0.03587
 Alpha virt. eigenvalues --    0.06216   0.06714   0.06729   0.06873   0.06873
 Alpha virt. eigenvalues --    0.07706   0.07706   0.10168   0.15715   0.17732

 Mulliken charges and spin densities:
               1          2
     1  Fe   0.346545   2.998135
     2  H   -0.346545   0.001865
 Sum of Mulliken charges =  -0.00000   3.00000

 Dipole moment (field-independent basis, Debye):
    X=              0.0000    Y=             -0.0000    Z=              4.9765  Tot=              4.9765
 Quadrupole moment (field-independent basis, Debye-Ang):
   XX=            -15.6088   YY=            -15.6088   ZZ=            -19.2813
   XY=              0.0000   XZ=              0.0000   YZ=             -0.0000

 \\#P ROCCSD(T)=(MaxCyc=150, Full)/Gen SCF=(maxcycle=400) Integral(DKHS
 .0237111\MP4SDQ=-1272.989844\CCSD=-1272.9814191\CCSD(T)=-1273.0110971\
 Normal termination of Gaussian 16 at Wed Mar  7 15:44:12 2018.
