 Gaussian 16, Revision A.03,
 Gaussian 16:  ES64L-G16RevA.03 25-Dec-2016

 ----------------------------------------------------------------------
 #P ROCCSD(T)=(maxcyc=150, Full, SaveAmplitudes, ReadAmplitudes)/Gen 5d
  7f SCF=(maxcycles=300) Integral(NoXCTest) MaxDisk=500GB Pop=Regular P
 seudo=Read Guess=Read IOp(5/15=2)
 ----------------------------------------------------------------------

 ---
 ScO
 ---
 Symbolic Z-matrix:
 Charge =  0 Multiplicity = 2

                         Standard orientation:
 ---------------------------------------------------------------------
 Center     Atomic      Atomic             Coordinates (Angstroms)
 Number     Number       Type             X           Y           Z
 ---------------------------------------------------------------------
      1         21           0        0.000000    0.000000    0.441379
      2          8           0        0.000000    0.000000   -1.158621
 ---------------------------------------------------------------------

 SCF Done:  E(ROHF) =  -61.8308988951     A.U. after   19 cycles
 E2 =    -0.6783356010D+00 EUMP2 =    -0.62509234496046D+02
 CCSD(T)
 CCSD(T)= -0.62537198513D+02

 The electronic state is 2-SG.
 Alpha  occ. eigenvalues --   -2.63638  -1.67003  -1.61025  -1.61025  -1.11770
 Alpha  occ. eigenvalues --   -0.44300  -0.44300  -0.43932  -0.23902
 Alpha virt. eigenvalues --    0.00317   0.00317   0.01700   0.02292   0.03648
 Alpha virt. eigenvalues --    0.03648   0.03758   0.03758   0.04200   0.04200
 Alpha virt. eigenvalues --    0.04255   0.06038   0.08980   0.08980   0.10751

 Mulliken charges and spin densities:
               1          2
     1  Sc   1.274140   0.975091
     2  O   -1.274140   0.024909
 Sum of Mulliken charges =  -0.00000   1.00000

 Dipole moment (field-independent basis, Debye):
    X=              0.0000    Y=              0.0000    Z=              3.8400  Tot=              3.8400
 Quadrupole moment (field-independent basis, Debye-Ang):
   XX=            -21.9722   YY=            -21.9722   ZZ=            -31.8591
   XY=              0.0000   XZ=              0.0000   YZ=              0.0000

 \\#P ROCCSD(T)=(maxcyc=150, Full, SaveAmplitudes, ReadAmplitudes)/Gen
 35\CCSD=-62.4997107\CCSD(T)=-62.5371985\RMSD=6.421e-10\PG=C*V [C*(O1Sc
 Normal termination of Gaussian 16 at Wed Feb 21 02:33:35 2018.
