 Gaussian 16, Revision A.03,
 Gaussian 16:  ES64L-G16RevA.03 25-Dec-2016

 ----------------------------------------------------------------------
 #P ROCCSD(T)=(maxcyc=150, Full)/Gen 5d 7f SCF=(maxcycles=300) MaxDisk=
 500GB Pop=Regular Pseudo=Read Guess=Read
 ----------------------------------------------------------------------

 -
 O
 -
 Symbolic Z-matrix:
 Charge =  0 Multiplicity = 3

                         Standard orientation:
 ---------------------------------------------------------------------
 Center     Atomic      Atomic             Coordinates (Angstroms)
 Number     Number       Type             X           Y           Z
 ---------------------------------------------------------------------
      1          8           0        0.000000    0.000000    0.000000
 ---------------------------------------------------------------------

 SCF Done:  E(ROHF) =  -15.7080188890     A.U. after   12 cycles
 E2 =    -0.1720594864D+00 EUMP2 =    -0.15880078375373D+02
 CCSD(T)
 CCSD(T)= -0.15899165234D+02

 Unable to determine electronic state:  an orbital has unidentified symmetry.
 Alpha  occ. eigenvalues --   -1.41687  -0.70270  -0.70270  -0.60640
 Alpha virt. eigenvalues --    0.13235   0.13235   0.13415   0.13999   0.46057
 Alpha virt. eigenvalues --    0.46057   0.47104   0.47104   0.47422   0.67592
 Alpha virt. eigenvalues --    0.67592   0.70988   0.84858   1.30888   1.30888

 Mulliken charges and spin densities:
               1          2
     1  O   -0.000000   2.000000
 Sum of Mulliken charges =  -0.00000   2.00000

 Dipole moment (field-independent basis, Debye):
    X=              0.0000    Y=              0.0000    Z=              0.0000  Tot=              0.0000
 Quadrupole moment (field-independent basis, Debye-Ang):
   XX=             -5.7851   YY=             -4.5501   ZZ=             -4.5501
   XY=             -0.0000   XZ=              0.0000   YZ=              0.0000

 P ROCCSD(T)=(maxcyc=150, Full)/Gen 5d 7f SCF=(maxcycles=300) MaxDisk=5
 Normal termination of Gaussian 16 at Thu Feb 22 14:23:44 2018.
