 Gaussian 16, Revision A.03,
 Gaussian 16:  ES64L-G16RevA.03 25-Dec-2016

 ----------------------------------------------------------------------
 #P ROCCSD(T)=(maxcyc=150, Full, SaveAmplitudes, ReadAmplitudes)/Gen 5d
  7f SCF=(maxcycles=300) Integral(NoXCTest) MaxDisk=500GB Pop=Regular P
 seudo=Read Guess=Read IOp(5/15=2)
 ----------------------------------------------------------------------

 ---
 TiO
 ---
 Symbolic Z-matrix:
 Charge =  0 Multiplicity = 3

                         Standard orientation:
 ---------------------------------------------------------------------
 Center     Atomic      Atomic             Coordinates (Angstroms)
 Number     Number       Type             X           Y           Z
 ---------------------------------------------------------------------
      1         22           0        0.000000    0.000000    0.480000
      2          8           0        0.000000    0.000000   -1.320000
 ---------------------------------------------------------------------

 SCF Done:  E(ROHF) =  -73.3846078232     A.U. after   22 cycles
 E2 =    -0.7505096346D+00 EUMP2 =    -0.74135117457789D+02
 CCSD(T)
 CCSD(T)= -0.74170416622D+02

 Unable to determine electronic state:  an orbital has unidentified symmetry.
 Alpha  occ. eigenvalues --   -3.06660  -1.96024  -1.96024  -1.91939  -1.14025
 Alpha  occ. eigenvalues --   -0.50740  -0.43334  -0.39549  -0.39549  -0.28706
 Alpha virt. eigenvalues --   -0.00483  -0.00483   0.00756   0.02229   0.03572
 Alpha virt. eigenvalues --    0.03572   0.04101   0.04676   0.05077   0.05921
 Alpha virt. eigenvalues --    0.05921   0.06156   0.08449   0.10821   0.11761

 Mulliken charges and spin densities:
               1          2
     1  Ti   0.945053   1.987862
     2  O   -0.945053   0.012138
 Sum of Mulliken charges =  -0.00000   2.00000

 Dipole moment (field-independent basis, Debye):
    X=              0.0000    Y=              0.0000    Z=              6.0701  Tot=              6.0701
 Quadrupole moment (field-independent basis, Debye-Ang):
   XX=            -21.6085   YY=            -21.6085   ZZ=            -30.3213
   XY=              0.0000   XZ=              0.0000   YZ=              0.0000

 \\#P ROCCSD(T)=(maxcyc=150, Full, SaveAmplitudes, ReadAmplitudes)/Gen
 .117939\CCSD(T)=-74.1704166\RMSD=2.438e-09\PG=C*V [C*(O1Ti1)]\\@
 Normal termination of Gaussian 16 at Fri Mar  9 15:45:24 2018.
