 Gaussian 16, Revision A.03,
 Gaussian 16:  ES64L-G16RevA.03 25-Dec-2016

 ----------------------------------------------------------------------
 #P ROCCSD(T)=(MaxCyc=150, Full)/Gen SCF=(maxcycle=400) Pseudo=Read Int
 egral(NoXCTest) Pop=Regular MaxDisk=500GB Guess=Read IOp(5/15=2)
 ----------------------------------------------------------------------

 --
 Ni
 --
 Symbolic Z-matrix:
 Charge =  0 Multiplicity = 3

                         Standard orientation:
 ---------------------------------------------------------------------
 Center     Atomic      Atomic             Coordinates (Angstroms)
 Number     Number       Type             X           Y           Z
 ---------------------------------------------------------------------
      1         28           0        0.000000    0.000000    0.000000
 ---------------------------------------------------------------------

 SCF Done:  E(ROHF) =  -168.475952570     A.U. after   14 cycles
 E2 =    -0.8752470524D+00 EUMP2 =    -0.16935119962279D+03
 CCSD(T)
 CCSD(T)= -0.16934381412D+03

 Unable to determine electronic state:  an orbital has unidentified symmetry.
 Alpha  occ. eigenvalues --   -5.18292  -3.48295  -3.39868  -3.39868  -0.76975
 Alpha  occ. eigenvalues --   -0.76975  -0.73124  -0.68353  -0.68353  -0.28843
 Alpha virt. eigenvalues --    0.02123   0.02257   0.02257   0.02989   0.06791
 Alpha virt. eigenvalues --    0.07160   0.07160   0.08332   0.08332   0.08333
 Alpha virt. eigenvalues --    0.08366   0.08366   0.16058   0.22739   0.23341

 Mulliken charges and spin densities:
               1          2
     1  Ni   0.000000   2.000000
 Sum of Mulliken charges =   0.00000   2.00000

 Dipole moment (field-independent basis, Debye):
    X=              0.0000    Y=              0.0000    Z=              0.0000  Tot=              0.0000
 Quadrupole moment (field-independent basis, Debye-Ang):
   XX=            -16.5839   YY=            -16.3355   ZZ=            -16.5839
   XY=             -0.0000   XZ=              0.0000   YZ=              0.0000

 1\1\GINC-C443-071\SP\ROCCSD(T)-Full\Gen\Ni1(3)\GWANG18\04-May-2018\0\\
 #P ROCCSD(T)=(MaxCyc=150, Full)/Gen SCF=(maxcycle=400) Pseudo=Read Int
 egral(NoXCTest) Pop=Regular MaxDisk=500GB Guess=Read IOp(5/15=2)\\Ni\\
 0,3\Ni,0,0.,0.,0.\\Version=ES64L-G16RevA.03\HF=-168.4759526\MP2=-169.3
 511996\MP3=-169.2945504\PUHF=-168.4759526\PMP2-0=-169.3511996\MP4SDQ=-
 169.3256214\CCSD=-169.3164604\CCSD(T)=-169.3438141\RMSD=1.746e-09\PG=O
 H [O(Ni1)]\\@

 Normal termination of Gaussian 16 at Fri May  4 11:20:35 2018.
