 Gaussian 16, Revision A.03,
 Gaussian 16:  ES64L-G16RevA.03 25-Dec-2016

 ----------------------------------------------------------------------
 #P ROCCSD(T)=(MaxCyc=150, Full)/Gen SCF=(maxcycle=400) Pseudo=Read Int
 egral(NoXCTest) Pop=Regular MaxDisk=500GB Guess=Read IOp(5/15=2)
 ----------------------------------------------------------------------

 --
 Ni
 --
 Symbolic Z-matrix:
 Charge =  0 Multiplicity = 3

                         Standard orientation:
 ---------------------------------------------------------------------
 Center     Atomic      Atomic             Coordinates (Angstroms)
 Number     Number       Type             X           Y           Z
 ---------------------------------------------------------------------
      1         28           0        0.000000    0.000000    0.000000
 ---------------------------------------------------------------------

 SCF Done:  E(ROHF) =  -168.462231970     A.U. after   14 cycles
 E2 =    -0.8787710898D+00 EUMP2 =    -0.16934100305929D+03
 CCSD(T)
 CCSD(T)= -0.16933174577D+03

 Unable to determine electronic state:  an orbital has unidentified symmetry.
 Alpha  occ. eigenvalues --   -5.15765  -3.49850  -3.41470  -3.41470  -0.76891
 Alpha  occ. eigenvalues --   -0.76891  -0.73071  -0.68319  -0.68319  -0.28841
 Alpha virt. eigenvalues --    0.02124   0.02258   0.02258   0.02989   0.06795
 Alpha virt. eigenvalues --    0.07163   0.07163   0.08332   0.08332   0.08333
 Alpha virt. eigenvalues --    0.08366   0.08366   0.16057   0.22752   0.23352

 Mulliken charges and spin densities:
               1          2
     1  Ni   0.000000   2.000000
 Sum of Mulliken charges =   0.00000   2.00000

 Dipole moment (field-independent basis, Debye):
    X=              0.0000    Y=              0.0000    Z=              0.0000  Tot=              0.0000
 Quadrupole moment (field-independent basis, Debye-Ang):
   XX=            -16.5935   YY=            -16.3451   ZZ=            -16.5935
   XY=             -0.0000   XZ=              0.0000   YZ=              0.0000

 1\1\GINC-C457-002\SP\ROCCSD(T)-Full\Gen\Ni1(3)\GWANG18\17-Aug-2018\0\\
 #P ROCCSD(T)=(MaxCyc=150, Full)/Gen SCF=(maxcycle=400) Pseudo=Read Int
 egral(NoXCTest) Pop=Regular MaxDisk=500GB Guess=Read IOp(5/15=2)\\Ni\\
 0,3\Ni,0,0.,0.,0.\\Version=ES64L-G16RevA.03\HF=-168.462232\MP2=-169.34
 10031\MP3=-169.2813767\PUHF=-168.462232\PMP2-0=-169.3410031\MP4SDQ=-16
 9.3139626\CCSD=-169.3042406\CCSD(T)=-169.3317458\RMSD=2.261e-09\PG=OH
 [O(Ni1)]\\@

 Normal termination of Gaussian 16 at Fri Aug 17 01:00:45 2018.
