 Gaussian 16, Revision A.03,
 Gaussian 16:  ES64L-G16RevA.03 25-Dec-2016

 ----------------------------------------------------------------------
 #P ROCCSD(T)=(MaxCyc=150, Full)/Gen SCF=(maxcycle=400) Pseudo=Read Int
 egral(NoXCTest) Pop=Regular MaxDisk=500GB Guess=Read IOp(5/15=2)
 ----------------------------------------------------------------------

 --
 Ni
 --
 Symbolic Z-matrix:
 Charge =  0 Multiplicity = 3

                         Standard orientation:
 ---------------------------------------------------------------------
 Center     Atomic      Atomic             Coordinates (Angstroms)
 Number     Number       Type             X           Y           Z
 ---------------------------------------------------------------------
      1         28           0        0.000000    0.000000    0.000000
 ---------------------------------------------------------------------

 SCF Done:  E(ROHF) =  -168.474286491     A.U. after   11 cycles
 E2 =    -0.8320383211D+00 EUMP2 =    -0.16930632481201D+03
 CCSD(T)
 CCSD(T)= -0.16930017467D+03

 Unable to determine electronic state:  an orbital has unidentified symmetry.
 Alpha  occ. eigenvalues --   -5.18294  -3.48307  -3.39878  -3.39878  -0.76973
 Alpha  occ. eigenvalues --   -0.76973  -0.73117  -0.68347  -0.68347  -0.28846
 Alpha virt. eigenvalues --    0.02265   0.02423   0.02423   0.03098   0.07719
 Alpha virt. eigenvalues --    0.08133   0.08133   0.12673   0.12673   0.12683
 Alpha virt. eigenvalues --    0.12761   0.12761   0.16515   0.28435   0.29188

 Mulliken charges and spin densities:
               1          2
     1  Ni  -0.000000   2.000000
 Sum of Mulliken charges =  -0.00000   2.00000

 Dipole moment (field-independent basis, Debye):
    X=              0.0000    Y=              0.0000    Z=              0.0000  Tot=              0.0000
 Quadrupole moment (field-independent basis, Debye-Ang):
   XX=            -16.5869   YY=            -16.3351   ZZ=            -16.5869
   XY=             -0.0000   XZ=             -0.0000   YZ=              0.0000

 1\1\GINC-C443-071\SP\ROCCSD(T)-Full\Gen\Ni1(3)\GWANG18\04-May-2018\0\\
 #P ROCCSD(T)=(MaxCyc=150, Full)/Gen SCF=(maxcycle=400) Pseudo=Read Int
 egral(NoXCTest) Pop=Regular MaxDisk=500GB Guess=Read IOp(5/15=2)\\Ni\\
 0,3\Ni,0,0.,0.,0.\\Version=ES64L-G16RevA.03\HF=-168.4742865\MP2=-169.3
 063248\MP3=-169.251341\PUHF=-168.4742865\PMP2-0=-169.3063248\MP4SDQ=-1
 69.2836385\CCSD=-169.2742697\CCSD(T)=-169.3001747\RMSD=3.978e-09\PG=OH
  [O(Ni1)]\\@

 Normal termination of Gaussian 16 at Fri May  4 10:56:08 2018.
