 Gaussian 16, Revision A.03,
 Gaussian 16:  ES64L-G16RevA.03 25-Dec-2016

 ----------------------------------------------------------------------
 #P ROCCSD(T)=(MaxCyc=150, Full)/Gen SCF=(maxcycle=400) Pseudo=Read Int
 egral(NoXCTest) Pop=Regular MaxDisk=500GB Guess=Read IOp(5/15=2)
 ----------------------------------------------------------------------

 --
 Ni
 --
 Symbolic Z-matrix:
 Charge =  0 Multiplicity = 3

                         Standard orientation:
 ---------------------------------------------------------------------
 Center     Atomic      Atomic             Coordinates (Angstroms)
 Number     Number       Type             X           Y           Z
 ---------------------------------------------------------------------
      1         28           0        0.000000    0.000000    0.000000
 ---------------------------------------------------------------------

 SCF Done:  E(ROHF) =  -168.460708180     A.U. after    8 cycles
 E2 =    -0.8356913136D+00 EUMP2 =    -0.16929639949386D+03
 CCSD(T)
 CCSD(T)= -0.16928837817D+03

 Unable to determine electronic state:  an orbital has unidentified symmetry.
 Alpha  occ. eigenvalues --   -5.15770  -3.49864  -3.41483  -3.41483  -0.76888
 Alpha  occ. eigenvalues --   -0.76888  -0.73064  -0.68314  -0.68314  -0.28845
 Alpha virt. eigenvalues --    0.02267   0.02424   0.02424   0.03098   0.07724
 Alpha virt. eigenvalues --    0.08136   0.08136   0.12673   0.12673   0.12684
 Alpha virt. eigenvalues --    0.12762   0.12762   0.16514   0.28452   0.29204

 Mulliken charges and spin densities:
               1          2
     1  Ni   0.000000   2.000000
 Sum of Mulliken charges =   0.00000   2.00000

 Dipole moment (field-independent basis, Debye):
    X=              0.0000    Y=              0.0000    Z=              0.0000  Tot=              0.0000
 Quadrupole moment (field-independent basis, Debye-Ang):
   XX=            -16.5961   YY=            -16.3443   ZZ=            -16.5961
   XY=             -0.0000   XZ=             -0.0000   YZ=              0.0000

 1\1\GINC-C457-002\SP\ROCCSD(T)-Full\Gen\Ni1(3)\GWANG18\17-Aug-2018\0\\
 #P ROCCSD(T)=(MaxCyc=150, Full)/Gen SCF=(maxcycle=400) Pseudo=Read Int
 egral(NoXCTest) Pop=Regular MaxDisk=500GB Guess=Read IOp(5/15=2)\\Ni\\
 0,3\Ni,0,0.,0.,0.\\Version=ES64L-G16RevA.03\HF=-168.4607082\MP2=-169.2
 963995\MP3=-169.2384389\PUHF=-168.4607082\PMP2-0=-169.2963995\MP4SDQ=-
 169.2722545\CCSD=-169.2623193\CCSD(T)=-169.2883782\RMSD=8.468e-09\PG=O
 H [O(Ni1)]\\@

 Normal termination of Gaussian 16 at Fri Aug 17 00:36:14 2018.
