 Gaussian 16, Revision A.03,
 Gaussian 16:  ES64L-G16RevA.03 25-Dec-2016

 ----------------------------------------------------------------------
 #P ROCCSD(T)=(MaxCyc=150, Full)/Gen SCF=(maxcycle=400, vshift=200) Pse
 udo=Read Integral(NoXCTest) Pop=Regular MaxDisk=500GB Guess=Read IOp(5
 /15=2)
 ----------------------------------------------------------------------

 ---
 CoH
 ---
 Symbolic Z-matrix:
 Charge =  0 Multiplicity = 3

                         Standard orientation:
 ---------------------------------------------------------------------
 Center     Atomic      Atomic             Coordinates (Angstroms)
 Number     Number       Type             X           Y           Z
 ---------------------------------------------------------------------
      1         27           0        0.000000    0.000000    0.060714
      2          1           0        0.000000    0.000000   -1.639286
 ---------------------------------------------------------------------

 SCF Done:  E(ROHF) =  -144.806627765     A.U. after   74 cycles
 E2 =    -0.8531337014D+00 EUMP2 =    -0.14565976146636D+03
 CCSD(T)
 CCSD(T)= -0.14564045333D+03

 Unable to determine electronic state:  partially filled degenerate orbitals.
 Alpha  occ. eigenvalues --   -4.54067  -2.96076  -2.96076  -2.96013  -0.49374
 Alpha  occ. eigenvalues --   -0.48919  -0.44678  -0.44282  -0.44282  -0.32459
 Alpha virt. eigenvalues --   -0.00349   0.02623   0.02623   0.03469   0.04600
 Alpha virt. eigenvalues --    0.09369   0.09369   0.10130   0.11226   0.11269
 Alpha virt. eigenvalues --    0.11506   0.11506   0.11657   0.18645   0.24448

 Mulliken charges and spin densities:
               1          2
     1  Co   0.377757   1.987393
     2  H   -0.377757   0.012607
 Sum of Mulliken charges =  -0.00000   2.00000

 Dipole moment (field-independent basis, Debye):
    X=              0.0000    Y=              0.0000    Z=              4.7177  Tot=              4.7177
 Quadrupole moment (field-independent basis, Debye-Ang):
   XX=            -14.0268   YY=            -14.0268   ZZ=            -18.9201
   XY=              0.0000   XZ=              0.0000   YZ=              0.0000

 \\#P ROCCSD(T)=(MaxCyc=150, Full)/Gen SCF=(maxcycle=400, vshift=200) P
 \PMP2-0=-145.6597615\MP4SDQ=-145.6349351\CCSD=-145.6106257\CCSD(T)=-14
 Normal termination of Gaussian 16 at Thu May  3 15:13:12 2018.
