 Gaussian 16, Revision A.03,
 Gaussian 16:  ES64L-G16RevA.03 25-Dec-2016

 ----------------------------------------------------------------------
 #P ROCCSD(T)=(MaxCyc=150, Full)/Gen SCF=(maxcycle=400, vshift=200) Pse
 udo=Read Integral(NoXCTest) Pop=Regular MaxDisk=500GB Guess=Read IOp(5
 /15=2)
 ----------------------------------------------------------------------

 ---
 CoH
 ---
 Symbolic Z-matrix:
 Charge =  0 Multiplicity = 3

                         Standard orientation:
 ---------------------------------------------------------------------
 Center     Atomic      Atomic             Coordinates (Angstroms)
 Number     Number       Type             X           Y           Z
 ---------------------------------------------------------------------
      1         27           0        0.000000    0.000000    0.060714
      2          1           0        0.000000    0.000000   -1.639286
 ---------------------------------------------------------------------

 SCF Done:  E(ROHF) =  -144.808331423     A.U. after   33 cycles
 E2 =    -0.8944161078D+00 EUMP2 =    -0.14570274753118D+03
 CCSD(T)
 CCSD(T)= -0.14568181547D+03

 Unable to determine electronic state:  partially filled degenerate orbitals.
 Alpha  occ. eigenvalues --   -4.54057  -2.96064  -2.96064  -2.96000  -0.49378
 Alpha  occ. eigenvalues --   -0.48923  -0.44684  -0.44291  -0.44291  -0.32459
 Alpha virt. eigenvalues --   -0.00365   0.02370   0.02370   0.03138   0.04317
 Alpha virt. eigenvalues --    0.06984   0.07289   0.07303   0.07557   0.07557
 Alpha virt. eigenvalues --    0.08565   0.08565   0.10206   0.17698   0.19694

 Mulliken charges and spin densities:
               1          2
     1  Co   0.357858   1.995492
     2  H   -0.357858   0.004508
 Sum of Mulliken charges =  -0.00000   2.00000

 Dipole moment (field-independent basis, Debye):
    X=              0.0000    Y=              0.0000    Z=              4.7130  Tot=              4.7130
 Quadrupole moment (field-independent basis, Debye-Ang):
   XX=            -14.0143   YY=            -14.0143   ZZ=            -18.9285
   XY=              0.0000   XZ=              0.0000   YZ=              0.0000

 \\#P ROCCSD(T)=(MaxCyc=150, Full)/Gen SCF=(maxcycle=400, vshift=200) P
 \PMP2-0=-145.7027475\MP4SDQ=-145.6742775\CCSD=-145.6504409\CCSD(T)=-14
 Normal termination of Gaussian 16 at Thu May  3 15:57:27 2018.
