 Gaussian 16, Revision A.03,
 Gaussian 16:  ES64L-G16RevA.03 25-Dec-2016

 ----------------------------------------------------------------------
 #P ROCCSD(T)=(MaxCyc=150, Full)/Gen SCF=(maxcycle=400, vshift=200) Pse
 udo=Read Integral(NoXCTest) Pop=Regular MaxDisk=500GB Guess=Read IOp(5
 /15=2)
 ----------------------------------------------------------------------

 ---
 CoH
 ---
 Symbolic Z-matrix:
 Charge =  0 Multiplicity = 3

                         Standard orientation:
 ---------------------------------------------------------------------
 Center     Atomic      Atomic             Coordinates (Angstroms)
 Number     Number       Type             X           Y           Z
 ---------------------------------------------------------------------
      1         27           0        0.000000    0.000000    0.060714
      2          1           0        0.000000    0.000000   -1.639286
 ---------------------------------------------------------------------

 SCF Done:  E(ROHF) =  -144.808671804     A.U. after   28 cycles
 E2 =    -0.9144680082D+00 EUMP2 =    -0.14572313981253D+03
 CCSD(T)
 CCSD(T)= -0.14569995068D+03

 Unable to determine electronic state:  partially filled degenerate orbitals.
 Alpha  occ. eigenvalues --   -4.54059  -2.96061  -2.96061  -2.95997  -0.49375
 Alpha  occ. eigenvalues --   -0.48921  -0.44689  -0.44296  -0.44296  -0.32460
 Alpha virt. eigenvalues --   -0.00401   0.02292   0.02292   0.02814   0.03732
 Alpha virt. eigenvalues --    0.06410   0.06590   0.06601   0.06883   0.06883
 Alpha virt. eigenvalues --    0.08170   0.08170   0.08886   0.14198   0.17560

 Mulliken charges and spin densities:
               1          2
     1  Co   0.326524   1.993867
     2  H   -0.326524   0.006133
 Sum of Mulliken charges =  -0.00000   2.00000

 Dipole moment (field-independent basis, Debye):
    X=              0.0000    Y=              0.0000    Z=              4.7127  Tot=              4.7127
 Quadrupole moment (field-independent basis, Debye-Ang):
   XX=            -14.0135   YY=            -14.0135   ZZ=            -18.9292
   XY=              0.0000   XZ=              0.0000   YZ=              0.0000

 \\#P ROCCSD(T)=(MaxCyc=150, Full)/Gen SCF=(maxcycle=400, vshift=200) P
 \PMP2-0=-145.7231398\MP4SDQ=-145.6915083\CCSD=-145.6679888\CCSD(T)=-14
 Normal termination of Gaussian 16 at Thu May  3 18:10:14 2018.
