 Gaussian 16, Revision A.03,
 Gaussian 16:  ES64L-G16RevA.03 25-Dec-2016

 ----------------------------------------------------------------------
 #P ROCCSD(T)=(maxcyc=150, Full, SaveAmplitudes, ReadAmplitudes)/Gen 5d
  7f SCF=(maxcycles=300, VShift=400) Integral(NoXCTest) MaxDisk=500GB P
 op=Full Pseudo=Read Guess=Read IOp(5/15=2)
 ----------------------------------------------------------------------

 ---
 CrO
 ---
 Symbolic Z-matrix:
 Charge =  0 Multiplicity = 5

                         Standard orientation:
 ---------------------------------------------------------------------
 Center     Atomic      Atomic             Coordinates (Angstroms)
 Number     Number       Type             X           Y           Z
 ---------------------------------------------------------------------
      1         24           0        0.000000    0.000000    0.400000
      2          8           0        0.000000    0.000000   -1.200000
 ---------------------------------------------------------------------

 SCF Done:  E(ROHF) =  -102.127363444     A.U. after   51 cycles
 E2 =    -0.8842610807D+00 EUMP2 =    -0.10301162452438D+03
 CCSD(T)
 CCSD(T)= -0.10303890083D+03

 Unable to determine electronic state:  an orbital has unidentified symmetry.
 Alpha  occ. eigenvalues --   -3.78465  -2.48790  -2.44594  -2.41902  -1.16875
 Alpha  occ. eigenvalues --   -0.61314  -0.58218  -0.56963  -0.48184  -0.42237
 Alpha  occ. eigenvalues --   -0.37899  -0.31960
 Alpha virt. eigenvalues --   -0.00652   0.00815   0.01726   0.03223   0.03752
 Alpha virt. eigenvalues --    0.04753   0.06243   0.07585   0.07601   0.07961
 Alpha virt. eigenvalues --    0.08117   0.08556   0.13216   0.14031   0.15988

 Mulliken charges and spin densities:
               1          2
     1  Cr   1.094705   3.858004
     2  O   -1.094705   0.141996
 Sum of Mulliken charges =  -0.00000   4.00000

 Dipole moment (field-independent basis, Debye):
    X=              0.0000    Y=              0.0000    Z=              6.6067  Tot=              6.6067
 Quadrupole moment (field-independent basis, Debye-Ang):
   XX=            -20.3081   YY=            -19.2240   ZZ=            -23.2769
   XY=              0.0000   XZ=              0.0000   YZ=              0.0000

 \\#P ROCCSD(T)=(maxcyc=150, Full, SaveAmplitudes, ReadAmplitudes)/Gen
 191667\CCSD=-102.9886139\CCSD(T)=-103.0389008\RMSD=9.495e-09\PG=C*V [C
 Normal termination of Gaussian 16 at Wed Apr  4 07:56:20 2018.
