 Gaussian 16, Revision A.03,
 Gaussian 16:  ES64L-G16RevA.03 25-Dec-2016

 ----------------------------------------------------------------------
 #P ROCCSD(T)=(maxcyc=150, Full)/Gen 5d 7f SCF=(maxcycles=200,NoVarAcc,
  VShift=300) MaxDisk=100GB Pop=Regular Pseudo=Read Guess=Read IOp(5/15
 =2)
 ----------------------------------------------------------------------

 --
 Cr
 --
 Symbolic Z-matrix:
 Charge =  0 Multiplicity = 7

                         Standard orientation:
 ---------------------------------------------------------------------
 Center     Atomic      Atomic             Coordinates (Angstroms)
 Number     Number       Type             X           Y           Z
 ---------------------------------------------------------------------
      1         24           0        0.000000    0.000000    0.000000
 ---------------------------------------------------------------------

 SCF Done:  E(ROHF) =  -86.1288390897     A.U. after   24 cycles
 E2 =    -0.5497163206D+00 EUMP2 =    -0.86678555410299D+02
 CCSD(T)
 CCSD(T)= -0.86689384478D+02

 The electronic state is 7-A1G.
 Alpha  occ. eigenvalues --   -3.57467  -2.32329  -2.32329  -2.32329  -0.36885
 Alpha  occ. eigenvalues --   -0.36885  -0.36885  -0.36885  -0.36885  -0.22623
 Alpha virt. eigenvalues --    0.01713   0.01713   0.01713   0.02416   0.05524
 Alpha virt. eigenvalues --    0.05524   0.05524   0.05524   0.05524   0.05928
 Alpha virt. eigenvalues --    0.05928   0.05928   0.12720   0.17961   0.17961

 Mulliken charges and spin densities:
               1          2
     1  Cr  -0.000000   6.000000
 Sum of Mulliken charges =  -0.00000   6.00000

 Dipole moment (field-independent basis, Debye):
    X=              0.0000    Y=              0.0000    Z=              0.0000  Tot=              0.0000
 Quadrupole moment (field-independent basis, Debye-Ang):
   XX=            -16.4466   YY=            -16.4466   ZZ=            -16.4466
   XY=              0.0000   XZ=              0.0000   YZ=             -0.0000

 1\1\GINC-C506-012\SP\ROCCSD(T)-Full\Gen\Cr1(7)\AANNABE\16-Mar-2018\0\\
 #P ROCCSD(T)=(maxcyc=150, Full)/Gen 5d 7f SCF=(maxcycles=200,NoVarAcc,
  VShift=300) MaxDisk=100GB Pop=Regular Pseudo=Read Guess=Read IOp(5/15
 =2)\\Cr\\0,7\Cr,0,0.,0.,0.\\Version=ES64L-G16RevA.03\State=7-A1G\HF=-8
 6.1288391\MP2=-86.6785554\MP3=-86.6703377\PUHF=-86.1288391\PMP2-0=-86.
 6785554\MP4SDQ=-86.6733978\CCSD=-86.6724876\CCSD(T)=-86.6893845\RMSD=5
 .151e-09\PG=OH [O(Cr1)]\\@

 Normal termination of Gaussian 16 at Fri Mar 16 16:10:44 2018.
