 Gaussian 16, Revision A.03,
 Gaussian 16:  ES64L-G16RevA.03 25-Dec-2016

 ----------------------------------------------------------------------
 #P ROCCSD(T)=(MaxCyc=150, Full)/Gen SCF=(maxcycle=400) Integral(DKHSO,
  NoXCTest) Pop=Regular MaxDisk=500GB Guess=Read IOp(5/15=2)
 ----------------------------------------------------------------------

 ---
 CoO
 ---
 Symbolic Z-matrix:
 Charge =  0 Multiplicity = 4

                         Standard orientation:
 ---------------------------------------------------------------------
 Center     Atomic      Atomic             Coordinates (Angstroms)
 Number     Number       Type             X           Y           Z
 ---------------------------------------------------------------------
      1         27           0        0.000000    0.000000    0.274286
      2          8           0        0.000000    0.000000   -0.925714
 ---------------------------------------------------------------------

 SCF Done:  E(ROHF) =  -1466.39857274     A.U. after    1 cycles
 E2 =    -0.1606475181D+01 EUMP2 =    -0.14680050479188D+04
 CCSD(T)
 CCSD(T)= -0.14679632775D+04

 Unable to determine electronic state:  partially filled degenerate orbitals.
 Alpha  occ. eigenvalues -- -285.86683 -35.62010 -30.38877 -30.37922 -30.37922
 Alpha  occ. eigenvalues --  -20.64215  -4.86282  -3.34017  -3.26752  -3.26752
 Alpha  occ. eigenvalues --   -1.37149  -0.91876  -0.91876  -0.78282  -0.76567
 Alpha  occ. eigenvalues --   -0.73293  -0.50500  -0.50500  -0.32426
 Alpha virt. eigenvalues --    0.01597   0.02982   0.02982   0.03314   0.06084
 Alpha virt. eigenvalues --    0.09570   0.09570   0.11245   0.11274   0.11274
 Alpha virt. eigenvalues --    0.11318   0.11343   0.12609   0.18502   0.26011

 Mulliken charges and spin densities:
               1          2
     1  Co   0.580431   2.598896
     2  O   -0.580431   0.401104
 Sum of Mulliken charges =   0.00000   3.00000

 Dipole moment (field-independent basis, Debye):
    X=              0.0000    Y=              0.0000    Z=              1.7654  Tot=              1.7654
 Quadrupole moment (field-independent basis, Debye-Ang):
   XX=            -20.6179   YY=            -20.6179   ZZ=            -20.6997
   XY=              0.0000   XZ=              0.0000   YZ=              0.0000

 \\#P ROCCSD(T)=(MaxCyc=150, Full)/Gen SCF=(maxcycle=400) Integral(DKHS
 .0050479\MP4SDQ=-1467.9481279\CCSD=-1467.91348\CCSD(T)=-1467.9632775\R
 Normal termination of Gaussian 16 at Sat Mar 31 14:13:46 2018.
