 Gaussian 16, Revision A.03,
 Gaussian 16:  ES64L-G16RevA.03 25-Dec-2016

 ----------------------------------------------------------------------
 #P ROCCSD(T)=(MaxCyc=150, Full)/Gen SCF=(maxcycle=400) Integral(DKHSO,
  NoXCTest) Pop=Regular MaxDisk=500GB Guess=Read IOp(5/15=2)
 ----------------------------------------------------------------------

 ---
 CoO
 ---
 Symbolic Z-matrix:
 Charge =  0 Multiplicity = 4

                         Standard orientation:
 ---------------------------------------------------------------------
 Center     Atomic      Atomic             Coordinates (Angstroms)
 Number     Number       Type             X           Y           Z
 ---------------------------------------------------------------------
      1         27           0        0.000000    0.000000    0.274286
      2          8           0        0.000000    0.000000   -0.925714
 ---------------------------------------------------------------------

 SCF Done:  E(ROHF) =  -1466.40576725     A.U. after   20 cycles
 E2 =    -0.1678772841D+01 EUMP2 =    -0.14680845400960D+04
 CCSD(T)
 CCSD(T)= -0.14680407991D+04

 Unable to determine electronic state:  partially filled degenerate orbitals.
 Alpha  occ. eigenvalues -- -285.86677 -35.61984 -30.38846 -30.37896 -30.37896
 Alpha  occ. eigenvalues --  -20.64055  -4.86257  -3.33976  -3.26739  -3.26739
 Alpha  occ. eigenvalues --   -1.37076  -0.91892  -0.91892  -0.78289  -0.76560
 Alpha  occ. eigenvalues --   -0.73304  -0.50520  -0.50520  -0.32409
 Alpha virt. eigenvalues --    0.01526   0.02715   0.02715   0.03038   0.05630
 Alpha virt. eigenvalues --    0.07156   0.07156   0.07403   0.07410   0.07665
 Alpha virt. eigenvalues --    0.09166   0.09166   0.11175   0.17321   0.21435

 Mulliken charges and spin densities:
               1          2
     1  Co   0.580063   2.606770
     2  O   -0.580063   0.393230
 Sum of Mulliken charges =  -0.00000   3.00000

 Dipole moment (field-independent basis, Debye):
    X=              0.0000    Y=              0.0000    Z=              1.7550  Tot=              1.7550
 Quadrupole moment (field-independent basis, Debye-Ang):
   XX=            -20.6187   YY=            -20.6187   ZZ=            -20.6868
   XY=              0.0000   XZ=              0.0000   YZ=              0.0000

 \\#P ROCCSD(T)=(MaxCyc=150, Full)/Gen SCF=(maxcycle=400) Integral(DKHS
 .0845401\MP4SDQ=-1468.0225712\CCSD=-1467.9886042\CCSD(T)=-1468.0407991
 Normal termination of Gaussian 16 at Sat Mar 31 15:52:39 2018.
