 Gaussian 16, Revision A.03,
 Gaussian 16:  ES64L-G16RevA.03 25-Dec-2016

 ----------------------------------------------------------------------
 #P ROCCSD(T)=(maxcyc=150, Full, SaveAmplitudes, ReadAmplitudes)/Gen 5d
  7f SCF=(maxcycles=300) Integral(NoXCTest) MaxDisk=500GB Pop=Regular P
 seudo=Read Guess=Read IOp(5/15=2)
 ----------------------------------------------------------------------

 ---
 CrO
 ---
 Symbolic Z-matrix:
 Charge =  0 Multiplicity = 5

                         Standard orientation:
 ---------------------------------------------------------------------
 Center     Atomic      Atomic             Coordinates (Angstroms)
 Number     Number       Type             X           Y           Z
 ---------------------------------------------------------------------
      1         24           0        0.000000    0.000000    0.400000
      2          8           0        0.000000    0.000000   -1.200000
 ---------------------------------------------------------------------

 SCF Done:  E(ROHF) =  -101.854188559     A.U. after   20 cycles
 E2 =    -0.8763992268D+00 EUMP2 =    -0.10273058778539D+03
 CCSD(T)
 CCSD(T)= -0.10275780873D+03

 Unable to determine electronic state:  an orbital has unidentified symmetry.
 Alpha  occ. eigenvalues --   -3.77612  -2.53015  -2.49091  -2.45796  -1.17899
 Alpha  occ. eigenvalues --   -0.61721  -0.58257  -0.57007  -0.48042  -0.43174
 Alpha  occ. eigenvalues --   -0.38636  -0.31822
 Alpha virt. eigenvalues --   -0.00188   0.00568   0.01687   0.03174   0.03893
 Alpha virt. eigenvalues --    0.04490   0.06081   0.07572   0.07587   0.08061
 Alpha virt. eigenvalues --    0.08078   0.08464   0.13150   0.13464   0.15852

 Mulliken charges and spin densities:
               1          2
     1  Cr   1.076402   3.858826
     2  O   -1.076402   0.141174
 Sum of Mulliken charges =  -0.00000   4.00000

 Dipole moment (field-independent basis, Debye):
    X=              0.0000    Y=              0.0000    Z=              6.1211  Tot=              6.1211
 Quadrupole moment (field-independent basis, Debye-Ang):
   XX=            -20.6743   YY=            -19.5829   ZZ=            -24.0057
   XY=              0.0000   XZ=              0.0000   YZ=              0.0000

 \\#P ROCCSD(T)=(maxcyc=150, Full, SaveAmplitudes, ReadAmplitudes)/Gen
 SD=-102.7078308\CCSD(T)=-102.7578087\RMSD=6.754e-09\PG=C*V [C*(O1Cr1)]
 Normal termination of Gaussian 16 at Fri Mar  9 16:19:17 2018.
