 Gaussian 16, Revision A.03,
 Gaussian 16:  ES64L-G16RevA.03 25-Dec-2016

 ----------------------------------------------------------------------
 #P ROCCSD(T)=(maxcyc=150, Window=(7,0), SaveAmplitudes, ReadAmplitudes
 )/Gen 5d 7f SCF=(maxcycles=300) Integral(NoXCTest, DKHSO) MaxDisk=500G
 B Pop=Regular Guess=Read
 ----------------------------------------------------------------------

 ---
 CrO
 ---
 Symbolic Z-matrix:
 Charge =  0 Multiplicity = 5

                         Standard orientation:
 ---------------------------------------------------------------------
 Center     Atomic      Atomic             Coordinates (Angstroms)
 Number     Number       Type             X           Y           Z
 ---------------------------------------------------------------------
      1         24           0        0.000000    0.000000    0.425000
      2          8           0        0.000000    0.000000   -1.275000
 ---------------------------------------------------------------------

 SCF Done:  E(ROHF) =  -1124.50170807     A.U. after   29 cycles
 E2 =    -0.8860162980D+00 EUMP2 =    -0.11253877243721D+04
 CCSD(T)
 CCSD(T)= -0.11254208803D+04

 Unable to determine electronic state:  an orbital has unidentified symmetry.
 Alpha  occ. eigenvalues -- -222.23798 -26.83169 -22.46801 -22.46667 -22.46009
 Alpha  occ. eigenvalues --  -20.45301  -3.68391  -2.45123  -2.41137  -2.39961
 Alpha  occ. eigenvalues --   -1.10831  -0.56135  -0.55840  -0.54187  -0.49216
 Alpha  occ. eigenvalues --   -0.36861  -0.34097  -0.32854
 Alpha virt. eigenvalues --   -0.03244   0.00771   0.01379   0.01783   0.03133
 Alpha virt. eigenvalues --    0.04575   0.05257   0.05258   0.05667   0.05959
 Alpha virt. eigenvalues --    0.06085   0.06615   0.11193   0.11513   0.13608

 Mulliken charges and spin densities:
               1          2
     1  Cr   1.108873   3.919026
     2  O   -1.108873   0.080974
 Sum of Mulliken charges =  -0.00000   4.00000

 Dipole moment (field-independent basis, Debye):
    X=              0.0000    Y=              0.0000    Z=              8.7525  Tot=              8.7525
 Quadrupole moment (field-independent basis, Debye-Ang):
   XX=            -20.1790   YY=            -19.1450   ZZ=            -23.4957
   XY=              0.0000   XZ=              0.0000   YZ=             -0.0000

 1\1\GINC-C484-074\SP\ROCCSD(T)-RW\Gen\Cr1O1(5)\AANNABE\14-Mar-2018\0\\
 #P ROCCSD(T)=(maxcyc=150, Window=(7,0), SaveAmplitudes, ReadAmplitudes
 )/Gen 5d 7f SCF=(maxcycles=300) Integral(NoXCTest, DKHSO) MaxDisk=500G
 B Pop=Regular Guess=Read\\CrO\\0,5\Cr,0,0.,0.,0.\O,0,0.,0.,1.7\\Versio
 n=ES64L-G16RevA.03\HF=-1124.5017081\MP2=-1125.3877244\PUHF=-1124.50170
 81\PMP2-0=-1125.3877244\CCSD=-1125.3700512\CCSD(T)=-1125.4208803\RMSD=
 5.444e-09\PG=C*V [C*(O1Cr1)]\\@

 Normal termination of Gaussian 16 at Wed Mar 14 15:32:04 2018.
