 Gaussian 16, Revision A.03,
 Gaussian 16:  ES64L-G16RevA.03 25-Dec-2016

 ----------------------------------------------------------------------
 #P ROCCSD(T)=(maxcyc=150, Full)/Gen 5d 7f SCF=(maxcycles=300, NoVarAcc
 , VShift=200) MaxDisk=100GB Pop=Regular Pseudo=Read Guess=Read IOp(5/1
 5=2)
 ----------------------------------------------------------------------

 --
 Cr
 --
 Symbolic Z-matrix:
 Charge =  0 Multiplicity = 7

                         Standard orientation:
 ---------------------------------------------------------------------
 Center     Atomic      Atomic             Coordinates (Angstroms)
 Number     Number       Type             X           Y           Z
 ---------------------------------------------------------------------
      1         24           0        0.000000    0.000000    0.000000
 ---------------------------------------------------------------------

 SCF Done:  E(ROHF) =  -86.3355756062     A.U. after   40 cycles
 E2 =    -0.5437523163D+00 EUMP2 =    -0.86879327922509D+02
 CCSD(T)
 CCSD(T)= -0.86891322816D+02

 The electronic state is 7-A1G.
 Alpha  occ. eigenvalues --   -3.51814  -2.28277  -2.28277  -2.28277  -0.36575
 Alpha  occ. eigenvalues --   -0.36575  -0.36575  -0.36575  -0.36575  -0.22611
 Alpha virt. eigenvalues --    0.01771   0.01771   0.01771   0.03171   0.06456
 Alpha virt. eigenvalues --    0.06456   0.06456   0.07934   0.07934   0.07934
 Alpha virt. eigenvalues --    0.07934   0.07934   0.21094   0.23012   0.23012

 Mulliken charges and spin densities:
               1          2
     1  Cr  -0.000000   6.000000
 Sum of Mulliken charges =  -0.00000   6.00000

 Dipole moment (field-independent basis, Debye):
    X=              0.0000    Y=              0.0000    Z=              0.0000  Tot=              0.0000
 Quadrupole moment (field-independent basis, Debye-Ang):
   XX=            -16.3738   YY=            -16.3738   ZZ=            -16.3738
   XY=              0.0000   XZ=              0.0000   YZ=             -0.0000

 1\1\GINC-C402-111\SP\ROCCSD(T)-Full\Gen\Cr1(7)\AANNABE\26-Feb-2018\0\\
 #P ROCCSD(T)=(maxcyc=150, Full)/Gen 5d 7f SCF=(maxcycles=300, NoVarAcc
 , VShift=200) MaxDisk=100GB Pop=Regular Pseudo=Read Guess=Read IOp(5/1
 5=2)\\Cr\\0,7\Cr,0,0.,0.,0.\\Version=ES64L-G16RevA.03\State=7-A1G\HF=-
 86.3355756\MP2=-86.8793279\MP3=-86.871316\PUHF=-86.3355756\PMP2-0=-86.
 8793279\MP4SDQ=-86.875595\CCSD=-86.8743972\CCSD(T)=-86.8913228\RMSD=8.
 992e-09\PG=OH [O(Cr1)]\\@

 Normal termination of Gaussian 16 at Mon Feb 26 19:55:50 2018.
