 Gaussian 16, Revision A.03,
 Gaussian 16:  ES64L-G16RevA.03 25-Dec-2016

 ----------------------------------------------------------------------
 #P ROCCSD(T)=(maxcyc=150, Full, SaveAmplitudes, ReadAmplitudes)/Gen 5d
  7f SCF=(maxcycles=300, VShift=400) Integral(NoXCTest) MaxDisk=500GB P
 op=Full Pseudo=Read Guess=Read IOp(5/15=2)
 ----------------------------------------------------------------------

 ---
 MnH
 ---
 Symbolic Z-matrix:
 Charge =  0 Multiplicity = 7

                         Standard orientation:
 ---------------------------------------------------------------------
 Center     Atomic      Atomic             Coordinates (Angstroms)
 Number     Number       Type             X           Y           Z
 ---------------------------------------------------------------------
      1         25           0        0.000000    0.000000    0.069231
      2          1           0        0.000000    0.000000   -1.730769
 ---------------------------------------------------------------------

 SCF Done:  E(ROHF) =  -103.795064896     A.U. after   29 cycles
 E2 =    -0.5715190225D+00 EUMP2 =    -0.10436658391826D+03
 CCSD(T)
 CCSD(T)= -0.10438940941D+03

 The electronic state is 7-SG.
 Alpha  occ. eigenvalues --   -4.15086  -2.77348  -2.77348  -2.77118  -0.65009
 Alpha  occ. eigenvalues --   -0.65009  -0.64532  -0.64309  -0.64309  -0.40177
 Alpha  occ. eigenvalues --   -0.26433
 Alpha virt. eigenvalues --    0.01185   0.01185   0.02337   0.03118   0.05667
 Alpha virt. eigenvalues --    0.05667   0.08200   0.08444   0.08444   0.08925
 Alpha virt. eigenvalues --    0.08925   0.09971   0.13736   0.19206   0.22601

 Mulliken charges and spin densities:
               1          2
     1  Mn   0.429889   5.957940
     2  H   -0.429889   0.042060
 Sum of Mulliken charges =  -0.00000   6.00000

 Dipole moment (field-independent basis, Debye):
    X=              0.0000    Y=              0.0000    Z=              1.6655  Tot=              1.6655
 Quadrupole moment (field-independent basis, Debye-Ang):
   XX=            -16.2811   YY=            -16.2811   ZZ=            -26.8590
   XY=              0.0000   XZ=              0.0000   YZ=              0.0000

 \\#P ROCCSD(T)=(maxcyc=150, Full, SaveAmplitudes, ReadAmplitudes)/Gen
 4SDQ=-104.3729701\CCSD=-104.3738086\CCSD(T)=-104.3894094\RMSD=9.361e-0
 Normal termination of Gaussian 16 at Thu Apr 19 08:56:42 2018.
