 Gaussian 16, Revision A.03,
 Gaussian 16:  ES64L-G16RevA.03 25-Dec-2016

 ----------------------------------------------------------------------
 #P ROCCSD(T)=(MaxCyc=150, Full)/Gen SCF=(maxcycle=400) Pseudo=Read Int
 egral(NoXCTest) Pop=Regular MaxDisk=500GB Guess=Read IOp(5/15=2)
 ----------------------------------------------------------------------

 --
 Co
 --
 Symbolic Z-matrix:
 Charge =  0 Multiplicity = 4

                         Standard orientation:
 ---------------------------------------------------------------------
 Center     Atomic      Atomic             Coordinates (Angstroms)
 Number     Number       Type             X           Y           Z
 ---------------------------------------------------------------------
      1         27           0        0.000000    0.000000    0.000000
 ---------------------------------------------------------------------

 SCF Done:  E(ROHF) =  -144.947581455     A.U. after   14 cycles
 E2 =    -0.8084890060D+00 EUMP2 =    -0.14575607046133D+03
 CCSD(T)
 CCSD(T)= -0.14576164897D+03

 Unable to determine electronic state:  an orbital has unidentified symmetry.
 Alpha  occ. eigenvalues --   -4.66943  -3.18877  -3.18877  -3.18877  -0.71879
 Alpha  occ. eigenvalues --   -0.71879  -0.71879  -0.66683  -0.66683  -0.28143
 Alpha virt. eigenvalues --    0.02054   0.02054   0.02054   0.02338   0.06558
 Alpha virt. eigenvalues --    0.06558   0.06558   0.06699   0.06699   0.06699
 Alpha virt. eigenvalues --    0.06706   0.06706   0.11544   0.20947   0.20947

 Mulliken charges and spin densities:
               1          2
     1  Co  -0.000000   3.000000
 Sum of Mulliken charges =  -0.00000   3.00000

 Dipole moment (field-independent basis, Debye):
    X=              0.0000    Y=              0.0000    Z=              0.0000  Tot=              0.0000
 Quadrupole moment (field-independent basis, Debye-Ang):
   XX=            -17.1333   YY=            -17.1333   ZZ=            -17.1333
   XY=             -0.0000   XZ=              0.0000   YZ=             -0.0000

 1\1\GINC-C403-021\SP\ROCCSD(T)-Full\Gen\Co1(4)\GWANG18\05-May-2018\0\\
 #P ROCCSD(T)=(MaxCyc=150, Full)/Gen SCF=(maxcycle=400) Pseudo=Read Int
 egral(NoXCTest) Pop=Regular MaxDisk=500GB Guess=Read IOp(5/15=2)\\Co\\
 0,4\Co,0,0.,0.,0.\\Version=ES64L-G16RevA.03\HF=-144.9475815\MP2=-145.7
 560705\MP3=-145.7253373\PUHF=-144.9475815\PMP2-0=-145.7560705\MP4SDQ=-
 145.7415469\CCSD=-145.737406\CCSD(T)=-145.761649\RMSD=1.729e-09\PG=OH
 [O(Co1)]\\@

 Normal termination of Gaussian 16 at Sat May  5 21:50:55 2018.
