 Gaussian 16, Revision A.03,
 Gaussian 16:  ES64L-G16RevA.03 25-Dec-2016

 ----------------------------------------------------------------------
 #P ROCCSD(T)=(MaxCyc=150, Full)/Gen SCF=(maxcycle=400) Pseudo=Read Int
 egral(NoXCTest) Pop=Regular MaxDisk=500GB Guess=Read IOp(5/15=2)
 ----------------------------------------------------------------------

 --
 Co
 --
 Symbolic Z-matrix:
 Charge =  0 Multiplicity = 4

                         Standard orientation:
 ---------------------------------------------------------------------
 Center     Atomic      Atomic             Coordinates (Angstroms)
 Number     Number       Type             X           Y           Z
 ---------------------------------------------------------------------
      1         27           0        0.000000    0.000000    0.000000
 ---------------------------------------------------------------------

 SCF Done:  E(ROHF) =  -144.947068002     A.U. after   13 cycles
 E2 =    -0.7902653889D+00 EUMP2 =    -0.14573733339063D+03
 CCSD(T)
 CCSD(T)= -0.14574496187D+03

 Unable to determine electronic state:  an orbital has unidentified symmetry.
 Alpha  occ. eigenvalues --   -4.66928  -3.18879  -3.18879  -3.18879  -0.71879
 Alpha  occ. eigenvalues --   -0.71879  -0.71879  -0.66677  -0.66677  -0.28143
 Alpha virt. eigenvalues --    0.02095   0.02095   0.02095   0.02852   0.06814
 Alpha virt. eigenvalues --    0.06814   0.06814   0.07397   0.07397   0.07397
 Alpha virt. eigenvalues --    0.07406   0.07406   0.15205   0.22850   0.22850

 Mulliken charges and spin densities:
               1          2
     1  Co   0.000000   3.000000
 Sum of Mulliken charges =   0.00000   3.00000

 Dipole moment (field-independent basis, Debye):
    X=              0.0000    Y=              0.0000    Z=              0.0000  Tot=              0.0000
 Quadrupole moment (field-independent basis, Debye-Ang):
   XX=            -17.1342   YY=            -17.1342   ZZ=            -17.1342
   XY=             -0.0000   XZ=              0.0000   YZ=             -0.0000

 1\1\GINC-C420-113\SP\ROCCSD(T)-Full\Gen\Co1(4)\GWANG18\02-Apr-2018\0\\
 #P ROCCSD(T)=(MaxCyc=150, Full)/Gen SCF=(maxcycle=400) Pseudo=Read Int
 egral(NoXCTest) Pop=Regular MaxDisk=500GB Guess=Read IOp(5/15=2)\\Co\\
 0,4\Co,0,0.,0.,0.\\Version=ES64L-G16RevA.03\HF=-144.947068\MP2=-145.73
 73334\MP3=-145.7087598\PUHF=-144.947068\PMP2-0=-145.7373334\MP4SDQ=-14
 5.7254754\CCSD=-145.7212052\CCSD(T)=-145.7449619\RMSD=5.006e-09\PG=OH
 [O(Co1)]\\@

 Normal termination of Gaussian 16 at Mon Apr  2 15:10:03 2018.
