 Gaussian 16, Revision A.03,
 Gaussian 16:  ES64L-G16RevA.03 25-Dec-2016

 ----------------------------------------------------------------------
 #P ROCCSD(T)=(MaxCyc=150, Full)/Gen SCF=(maxcycle=400) Pseudo=Read Int
 egral(NoXCTest) Pop=Regular MaxDisk=500GB Guess=Read IOp(5/15=2)
 ----------------------------------------------------------------------

 --
 Co
 --
 Symbolic Z-matrix:
 Charge =  0 Multiplicity = 4

                         Standard orientation:
 ---------------------------------------------------------------------
 Center     Atomic      Atomic             Coordinates (Angstroms)
 Number     Number       Type             X           Y           Z
 ---------------------------------------------------------------------
      1         27           0        0.000000    0.000000    0.000000
 ---------------------------------------------------------------------

 SCF Done:  E(ROHF) =  -144.945748733     A.U. after   16 cycles
 E2 =    -0.7525771880D+00 EUMP2 =    -0.14569832592108D+03
 CCSD(T)
 CCSD(T)= -0.14570726358D+03

 Unable to determine electronic state:  an orbital has unidentified symmetry.
 Alpha  occ. eigenvalues --   -4.66972  -3.18899  -3.18899  -3.18899  -0.71869
 Alpha  occ. eigenvalues --   -0.71869  -0.71869  -0.66666  -0.66666  -0.28145
 Alpha virt. eigenvalues --    0.02215   0.02215   0.02215   0.02967   0.07627
 Alpha virt. eigenvalues --    0.07627   0.07627   0.11262   0.11262   0.11262
 Alpha virt. eigenvalues --    0.11290   0.11290   0.15724   0.27620   0.27620

 Mulliken charges and spin densities:
               1          2
     1  Co   0.000000   3.000000
 Sum of Mulliken charges =   0.00000   3.00000

 Dipole moment (field-independent basis, Debye):
    X=              0.0000    Y=              0.0000    Z=              0.0000  Tot=              0.0000
 Quadrupole moment (field-independent basis, Debye-Ang):
   XX=            -17.1362   YY=            -17.1362   ZZ=            -17.1362
   XY=              0.0000   XZ=              0.0000   YZ=             -0.0000

 1\1\GINC-C420-113\SP\ROCCSD(T)-Full\Gen\Co1(4)\GWANG18\02-Apr-2018\0\\
 #P ROCCSD(T)=(MaxCyc=150, Full)/Gen SCF=(maxcycle=400) Pseudo=Read Int
 egral(NoXCTest) Pop=Regular MaxDisk=500GB Guess=Read IOp(5/15=2)\\Co\\
 0,4\Co,0,0.,0.,0.\\Version=ES64L-G16RevA.03\HF=-144.9457487\MP2=-145.6
 983259\MP3=-145.6714037\PUHF=-144.9457487\PMP2-0=-145.6983259\MP4SDQ=-
 145.6892053\CCSD=-145.6847601\CCSD(T)=-145.7072636\RMSD=6.903e-09\PG=O
 H [O(Co1)]\\@

 Normal termination of Gaussian 16 at Mon Apr  2 14:46:42 2018.
