 Gaussian 16, Revision A.03,
 Gaussian 16:  ES64L-G16RevA.03 25-Dec-2016

 ----------------------------------------------------------------------
 #P ROCCSD(T)=(maxcyc=150, Full)/Gen 5d 7f SCF=(maxcycles=300) Integral
 (NoXCTest) MaxDisk=500GB Pop=Regular Pseudo=Read IOp(5/15=2) Guess=Rea
 d
 ----------------------------------------------------------------------

 ---
 ScH
 ---
 Symbolic Z-matrix:
 Charge =  0 Multiplicity = 1

                         Standard orientation:
 ---------------------------------------------------------------------
 Center     Atomic      Atomic             Coordinates (Angstroms)
 Number     Number       Type             X           Y           Z
 ---------------------------------------------------------------------
      1         21           0        0.000000    0.000000    0.045455
      2          1           0        0.000000    0.000000   -0.954545
 ---------------------------------------------------------------------

 SCF Done:  E(ROHF) =  -46.5117839041     A.U. after   10 cycles
 E2 =    -0.4365717193D+00 EUMP2 =    -0.46948355623392D+02
 CCSD(T)
 CCSD(T)= -0.46985530176D+02

 The electronic state is 1-SG.
 Alpha  occ. eigenvalues --   -2.66563  -1.65906  -1.55709  -1.55709  -0.47498
 Alpha  occ. eigenvalues --   -0.21301
 Alpha virt. eigenvalues --    0.01213   0.01342   0.01342   0.02141   0.02883
 Alpha virt. eigenvalues --    0.02883   0.02906   0.02908   0.02908   0.04371
 Alpha virt. eigenvalues --    0.04518   0.04518   0.08286   0.08286   0.08451

 Mulliken charges and spin densities:
               1          2
     1  Sc   0.292318   0.000000
     2  H   -0.292318   0.000000
 Sum of Mulliken charges =  -0.00000   0.00000

 Dipole moment (field-independent basis, Debye):
    X=              0.0000    Y=              0.0000    Z=              1.2565  Tot=              1.2565
 Quadrupole moment (field-independent basis, Debye-Ang):
   XX=            -23.4894   YY=            -23.4894   ZZ=            -22.0610
   XY=              0.0000   XZ=              0.0000   YZ=              0.0000

 P ROCCSD(T)=(maxcyc=150, Full)/Gen 5d 7f SCF=(maxcycles=300) Integral(
 MP2-0=-46.9483556\MP4SDQ=-46.9676458\CCSD=-46.9675107\CCSD(T)=-46.9855
 Normal termination of Gaussian 16 at Tue Feb 13 15:47:31 2018.
