 Gaussian 16, Revision A.03,
 Gaussian 16:  ES64L-G16RevA.03 25-Dec-2016

 ----------------------------------------------------------------------
 #P ROCCSD(T)=(MaxCyc=150, Full)/Gen SCF=(maxcycle=400) Pseudo=Read Int
 egral(NoXCTest) Pop=Regular MaxDisk=500GB Guess=Read IOp(5/15=2)
 ----------------------------------------------------------------------

 ---
 ZnO
 ---
 Symbolic Z-matrix:
 Charge =  0 Multiplicity = 1

                         Standard orientation:
 ---------------------------------------------------------------------
 Center     Atomic      Atomic             Coordinates (Angstroms)
 Number     Number       Type             X           Y           Z
 ---------------------------------------------------------------------
      1         30           0        0.000000    0.000000    0.442105
      2          8           0        0.000000    0.000000   -1.657895
 ---------------------------------------------------------------------

 SCF Done:  E(ROHF) =  -241.635515249     A.U. after   10 cycles
 E2 =    -0.1350074952D+01 EUMP2 =    -0.24298559020117D+03
 CCSD(T)
 CCSD(T)= -0.24295785837D+03

 The electronic state is 1-SG.
 Alpha  occ. eigenvalues --   -5.91382  -3.98519  -3.98519  -3.98456  -1.18431
 Alpha  occ. eigenvalues --   -0.81297  -0.81297  -0.81271  -0.81271  -0.80759
 Alpha  occ. eigenvalues --   -0.46365  -0.46365  -0.34150
 Alpha virt. eigenvalues --   -0.03519   0.02279   0.02279   0.02683   0.03947
 Alpha virt. eigenvalues --    0.07343   0.07343   0.11485   0.16252   0.16807
 Alpha virt. eigenvalues --    0.18003   0.18003   0.18933   0.18933   0.23324

 Mulliken charges and spin densities:
               1          2
     1  Zn   0.553811   0.000000
     2  O   -0.553811   0.000000
 Sum of Mulliken charges =  -0.00000   0.00000

 Dipole moment (field-independent basis, Debye):
    X=              0.0000    Y=              0.0000    Z=              4.9411  Tot=              4.9411
 Quadrupole moment (field-independent basis, Debye-Ang):
   XX=            -18.9738   YY=            -18.9738   ZZ=            -21.7970
   XY=              0.0000   XZ=              0.0000   YZ=              0.0000

 P ROCCSD(T)=(MaxCyc=150, Full)/Gen SCF=(maxcycle=400) Pseudo=Read Inte
 2-0=-242.9855902\MP4SDQ=-242.9373299\CCSD=-242.9071327\CCSD(T)=-242.95
 Normal termination of Gaussian 16 at Fri May  4 15:08:19 2018.
