 Gaussian 16, Revision A.03,
 Gaussian 16:  ES64L-G16RevA.03 25-Dec-2016

 ----------------------------------------------------------------------
 #P ROCCSD(T)=(MaxCyc=150, Full)/Gen SCF=(maxcycle=400) Pseudo=Read Int
 egral(NoXCTest) Pop=Regular MaxDisk=500GB Guess=Read IOp(5/15=2)
 ----------------------------------------------------------------------

 ---
 ZnO
 ---
 Symbolic Z-matrix:
 Charge =  0 Multiplicity = 1

                         Standard orientation:
 ---------------------------------------------------------------------
 Center     Atomic      Atomic             Coordinates (Angstroms)
 Number     Number       Type             X           Y           Z
 ---------------------------------------------------------------------
      1         30           0        0.000000    0.000000    0.442105
      2          8           0        0.000000    0.000000   -1.657895
 ---------------------------------------------------------------------

 SCF Done:  E(ROHF) =  -241.632005037     A.U. after   12 cycles
 E2 =    -0.1283578664D+01 EUMP2 =    -0.24291558370118D+03
 CCSD(T)
 CCSD(T)= -0.24289018127D+03

 The electronic state is 1-SG.
 Alpha  occ. eigenvalues --   -5.91403  -3.98546  -3.98546  -3.98486  -1.18480
 Alpha  occ. eigenvalues --   -0.81316  -0.81316  -0.81287  -0.81287  -0.80781
 Alpha  occ. eigenvalues --   -0.46340  -0.46340  -0.34170
 Alpha virt. eigenvalues --   -0.03536   0.02462   0.02462   0.02936   0.04345
 Alpha virt. eigenvalues --    0.08359   0.08359   0.12949   0.17335   0.20777
 Alpha virt. eigenvalues --    0.21857   0.21857   0.24925   0.24925   0.30302

 Mulliken charges and spin densities:
               1          2
     1  Zn   0.575386   0.000000
     2  O   -0.575386   0.000000
 Sum of Mulliken charges =  -0.00000   0.00000

 Dipole moment (field-independent basis, Debye):
    X=              0.0000    Y=              0.0000    Z=              4.9548  Tot=              4.9548
 Quadrupole moment (field-independent basis, Debye-Ang):
   XX=            -18.9858   YY=            -18.9858   ZZ=            -21.7936
   XY=              0.0000   XZ=              0.0000   YZ=              0.0000

 P ROCCSD(T)=(MaxCyc=150, Full)/Gen SCF=(maxcycle=400) Pseudo=Read Inte
 0=-242.9155837\MP4SDQ=-242.8722849\CCSD=-242.8419524\CCSD(T)=-242.8901
 Normal termination of Gaussian 16 at Fri May  4 12:48:22 2018.
