 Gaussian 16, Revision A.03,
 Gaussian 16:  ES64L-G16RevA.03 25-Dec-2016

 ----------------------------------------------------------------------
 #P ROCCSD(T)=(maxcyc=150, Full, SaveAmplitudes, ReadAmplitudes)/Gen 5d
  7f SCF=(maxcycles=300) Integral(NoXCTest) MaxDisk=500GB Pop=Regular P
 seudo=Read Guess=Read
 ----------------------------------------------------------------------

 ---
 CrH
 ---
 Symbolic Z-matrix:
 Charge =  0 Multiplicity = 6

                         Standard orientation:
 ---------------------------------------------------------------------
 Center     Atomic      Atomic             Coordinates (Angstroms)
 Number     Number       Type             X           Y           Z
 ---------------------------------------------------------------------
      1         24           0        0.000000    0.000000    0.040000
      2          1           0        0.000000    0.000000   -0.960000
 ---------------------------------------------------------------------

 SCF Done:  E(ROHF) =  -86.6298443715     A.U. after   49 cycles
 E2 =    -0.6380482281D+00 EUMP2 =    -0.87267892599612D+02
 CCSD(T)
 CCSD(T)= -0.87276799827D+02

 The electronic state is 6-SG.
 Alpha  occ. eigenvalues --   -3.63183  -2.34835  -2.32139  -2.32139  -0.50089
 Alpha  occ. eigenvalues --   -0.42645  -0.42645  -0.39388  -0.39388  -0.24865
 Alpha virt. eigenvalues --    0.01559   0.01828   0.01828   0.02264   0.04783
 Alpha virt. eigenvalues --    0.05514   0.05514   0.05520   0.05520   0.05920
 Alpha virt. eigenvalues --    0.06060   0.06060   0.09281   0.13676   0.16767

 Mulliken charges and spin densities:
               1          2
     1  Cr   0.208626   4.989832
     2  H   -0.208626   0.010168
 Sum of Mulliken charges =  -0.00000   5.00000

 Dipole moment (field-independent basis, Debye):
    X=              0.0000    Y=              0.0000    Z=              1.9782  Tot=              1.9782
 Quadrupole moment (field-independent basis, Debye-Ang):
   XX=            -16.3096   YY=            -16.3096   ZZ=            -17.3656
   XY=              0.0000   XZ=              0.0000   YZ=              0.0000

 \\#P ROCCSD(T)=(maxcyc=150, Full, SaveAmplitudes, ReadAmplitudes)/Gen
 98444\PMP2-0=-87.2678926\CCSD=-87.2540756\CCSD(T)=-87.2767998\RMSD=6.1
 Normal termination of Gaussian 16 at Sun Feb 25 17:36:42 2018.
