 Gaussian 16, Revision A.03,
 Gaussian 16:  ES64L-G16RevA.03 25-Dec-2016

 ----------------------------------------------------------------------
 #P ROCCSD(T)=(maxcyc=150, Full, SaveAmplitudes, ReadAmplitudes)/Gen 5d
  7f SCF=(maxcycles=300) Integral(NoXCTest) MaxDisk=500GB Pop=Regular P
 seudo=Read Guess=Read IOp(5/15=2)
 ----------------------------------------------------------------------

 ---
 MnO
 ---
 Symbolic Z-matrix:
 Charge =  0 Multiplicity = 6

                         Standard orientation:
 ---------------------------------------------------------------------
 Center     Atomic      Atomic             Coordinates (Angstroms)
 Number     Number       Type             X           Y           Z
 ---------------------------------------------------------------------
      1         25           0        0.000000    0.000000    0.387879
      2          8           0        0.000000    0.000000   -1.212121
 ---------------------------------------------------------------------

 SCF Done:  E(ROHF) =  -119.132436470     A.U. after   28 cycles
 E2 =    -0.9052781209D+00 EUMP2 =    -0.12003771459048D+03
 CCSD(T)
 CCSD(T)= -0.12006484096D+03

 The electronic state is 6-SG.
 Alpha  occ. eigenvalues --   -4.22233  -2.77646  -2.77646  -2.76727  -1.13742
 Alpha  occ. eigenvalues --   -0.64579  -0.64579  -0.62707  -0.62707  -0.56759
 Alpha  occ. eigenvalues --   -0.35122  -0.35122  -0.33996
 Alpha virt. eigenvalues --   -0.03323   0.01783   0.01783   0.02268   0.03838
 Alpha virt. eigenvalues --    0.06915   0.06915   0.08317   0.08552   0.08552
 Alpha virt. eigenvalues --    0.09673   0.09673   0.13706   0.13951   0.23336

 Mulliken charges and spin densities:
               1          2
     1  Mn   1.153300   4.851775
     2  O   -1.153300   0.148225
 Sum of Mulliken charges =  -0.00000   5.00000

 Dipole moment (field-independent basis, Debye):
    X=              0.0000    Y=              0.0000    Z=              8.2806  Tot=              8.2806
 Quadrupole moment (field-independent basis, Debye-Ang):
   XX=            -18.8610   YY=            -18.8610   ZZ=            -23.0792
   XY=              0.0000   XZ=              0.0000   YZ=              0.0000

 \\#P ROCCSD(T)=(maxcyc=150, Full, SaveAmplitudes, ReadAmplitudes)/Gen
 .0328019\CCSD=-120.0233504\CCSD(T)=-120.064841\RMSD=7.700e-09\PG=C*V [
 Normal termination of Gaussian 16 at Tue Mar 13 14:26:55 2018.
