 Gaussian 16, Revision A.03,
 Gaussian 16:  ES64L-G16RevA.03 25-Dec-2016

 ----------------------------------------------------------------------
 #P ROCCSD(T)=(maxcyc=150, Full, SaveAmplitudes, ReadAmplitudes)/Gen 5d
  7f SCF=(maxcycles=300, VShift=400) Integral(NoXCTest) MaxDisk=500GB P
 op=Full Pseudo=Read Guess=Read IOp(5/15=2)
 ----------------------------------------------------------------------

 ---
 MnH
 ---
 Symbolic Z-matrix:
 Charge =  0 Multiplicity = 7

                         Standard orientation:
 ---------------------------------------------------------------------
 Center     Atomic      Atomic             Coordinates (Angstroms)
 Number     Number       Type             X           Y           Z
 ---------------------------------------------------------------------
      1         25           0        0.000000    0.000000    0.065385
      2          1           0        0.000000    0.000000   -1.634615
 ---------------------------------------------------------------------

 SCF Done:  E(ROHF) =  -104.254162369     A.U. after   25 cycles
 E2 =    -0.5760731856D+00 EUMP2 =    -0.10483023555431D+03
 CCSD(T)
 CCSD(T)= -0.10485249721D+03

 The electronic state is 7-SG.
 Alpha  occ. eigenvalues --   -4.14193  -2.76988  -2.76988  -2.76823  -0.65371
 Alpha  occ. eigenvalues --   -0.65371  -0.65142  -0.64701  -0.64701  -0.40820
 Alpha  occ. eigenvalues --   -0.26037
 Alpha virt. eigenvalues --    0.01255   0.01255   0.02329   0.03132   0.05741
 Alpha virt. eigenvalues --    0.05741   0.08285   0.08463   0.08463   0.08938
 Alpha virt. eigenvalues --    0.08938   0.09777   0.13918   0.19687   0.22710

 Mulliken charges and spin densities:
               1          2
     1  Mn   0.434480   5.958332
     2  H   -0.434480   0.041668
 Sum of Mulliken charges =  -0.00000   6.00000

 Dipole moment (field-independent basis, Debye):
    X=              0.0000    Y=              0.0000    Z=              1.3126  Tot=              1.3126
 Quadrupole moment (field-independent basis, Debye-Ang):
   XX=            -16.1155   YY=            -16.1155   ZZ=            -26.3347
   XY=              0.0000   XZ=              0.0000   YZ=              0.0000

 \\#P ROCCSD(T)=(maxcyc=150, Full, SaveAmplitudes, ReadAmplitudes)/Gen
 SDQ=-104.836092\CCSD=-104.8368031\CCSD(T)=-104.8524972\RMSD=9.193e-09\
 Normal termination of Gaussian 16 at Wed Apr  4 02:06:21 2018.
