 Gaussian 16, Revision A.03,
 Gaussian 16:  ES64L-G16RevA.03 25-Dec-2016

 ----------------------------------------------------------------------
 #P ROCCSD(T)=(MaxCyc=150, Full)/Gen SCF=(maxcycle=400) Pseudo=Read Int
 egral(NoXCTest) Pop=Regular MaxDisk=500GB Guess=Read IOp(5/15=2)
 ----------------------------------------------------------------------

 ---
 CuH
 ---
 Symbolic Z-matrix:
 Charge =  0 Multiplicity = 1

                         Standard orientation:
 ---------------------------------------------------------------------
 Center     Atomic      Atomic             Coordinates (Angstroms)
 Number     Number       Type             X           Y           Z
 ---------------------------------------------------------------------
      1         29           0        0.000000    0.000000    0.053333
      2          1           0        0.000000    0.000000   -1.546667
 ---------------------------------------------------------------------

 SCF Done:  E(ROHF) =  -197.120254455     A.U. after    7 cycles
 E2 =    -0.1150434670D+01 EUMP2 =    -0.19827068912535D+03
 CCSD(T)
 CCSD(T)= -0.19819234289D+03

 The electronic state is 1-SG.
 Alpha  occ. eigenvalues --   -5.24897  -3.51672  -3.51493  -3.51493  -0.49871
 Alpha  occ. eigenvalues --   -0.49604  -0.49604  -0.49602  -0.49602  -0.33741
 Alpha virt. eigenvalues --   -0.00143   0.02528   0.02528   0.03045   0.04076
 Alpha virt. eigenvalues --    0.07686   0.08533   0.08533   0.12144   0.12144
 Alpha virt. eigenvalues --    0.12175   0.12414   0.12414   0.14994   0.18511

 Mulliken charges and spin densities:
               1          2
     1  Cu   0.310499   0.000000
     2  H   -0.310499   0.000000
 Sum of Mulliken charges =  -0.00000   0.00000

 Dipole moment (field-independent basis, Debye):
    X=              0.0000    Y=              0.0000    Z=              4.1798  Tot=              4.1798
 Quadrupole moment (field-independent basis, Debye-Ang):
   XX=            -13.6175   YY=            -13.6175   ZZ=            -16.6009
   XY=              0.0000   XZ=              0.0000   YZ=              0.0000

 P ROCCSD(T)=(MaxCyc=150, Full)/Gen SCF=(maxcycle=400) Pseudo=Read Inte
 2-0=-198.2706891\MP4SDQ=-198.2213902\CCSD=-198.1534219\CCSD(T)=-198.19
 Normal termination of Gaussian 16 at Thu May  3 11:13:38 2018.
