 Gaussian 16, Revision A.03,
 Gaussian 16:  ES64L-G16RevA.03 25-Dec-2016

 ----------------------------------------------------------------------
 #P ROCCSD(T)=(MaxCyc=150, Full)/Gen SCF=(maxcycle=400, vshift=200) Pse
 udo=Read Integral(NoXCTest) Pop=Regular MaxDisk=500GB Guess=Read IOp(5
 /15=2)
 ----------------------------------------------------------------------

 ---
 CoH
 ---
 Symbolic Z-matrix:
 Charge =  0 Multiplicity = 3

                         Standard orientation:
 ---------------------------------------------------------------------
 Center     Atomic      Atomic             Coordinates (Angstroms)
 Number     Number       Type             X           Y           Z
 ---------------------------------------------------------------------
      1         27           0        0.000000    0.000000    0.057143
      2          1           0        0.000000    0.000000   -1.542857
 ---------------------------------------------------------------------

 SCF Done:  E(ROHF) =  -145.419172502     A.U. after   34 cycles
 E2 =    -0.9006747435D+00 EUMP2 =    -0.14631984724581D+03
 CCSD(T)
 CCSD(T)= -0.14629759991D+03

 Unable to determine electronic state:  partially filled degenerate orbitals.
 Alpha  occ. eigenvalues --   -4.58548  -2.94420  -2.94420  -2.94381  -0.49262
 Alpha  occ. eigenvalues --   -0.49033  -0.44545  -0.44235  -0.44235  -0.32798
 Alpha virt. eigenvalues --   -0.00131   0.02414   0.02414   0.03068   0.04557
 Alpha virt. eigenvalues --    0.06990   0.07319   0.07332   0.07559   0.07559
 Alpha virt. eigenvalues --    0.08649   0.08649   0.10100   0.18137   0.19912

 Mulliken charges and spin densities:
               1          2
     1  Co   0.348119   1.994230
     2  H   -0.348119   0.005770
 Sum of Mulliken charges =  -0.00000   2.00000

 Dipole moment (field-independent basis, Debye):
    X=              0.0000    Y=              0.0000    Z=              4.4737  Tot=              4.4737
 Quadrupole moment (field-independent basis, Debye-Ang):
   XX=            -13.8623   YY=            -13.8623   ZZ=            -18.1442
   XY=              0.0000   XZ=              0.0000   YZ=              0.0000

 \\#P ROCCSD(T)=(MaxCyc=150, Full)/Gen SCF=(maxcycle=400, vshift=200) P
 \PMP2-0=-146.3198472\MP4SDQ=-146.291167\CCSD=-146.2659148\CCSD(T)=-146
 Normal termination of Gaussian 16 at Sun Apr 22 03:02:47 2018.
