 Gaussian 16, Revision A.03,
 Gaussian 16:  ES64L-G16RevA.03 25-Dec-2016

 ----------------------------------------------------------------------
 #P ROCCSD(T)=(MaxCyc=150, Full)/Gen SCF=(maxcycle=400, vshift=200) Pse
 udo=Read Integral(NoXCTest) Pop=Regular MaxDisk=500GB Guess=Read IOp(5
 /15=2)
 ----------------------------------------------------------------------

 ---
 CoH
 ---
 Symbolic Z-matrix:
 Charge =  0 Multiplicity = 3

                         Standard orientation:
 ---------------------------------------------------------------------
 Center     Atomic      Atomic             Coordinates (Angstroms)
 Number     Number       Type             X           Y           Z
 ---------------------------------------------------------------------
      1         27           0        0.000000    0.000000    0.057143
      2          1           0        0.000000    0.000000   -1.542857
 ---------------------------------------------------------------------

 SCF Done:  E(ROHF) =  -145.417821871     A.U. after   85 cycles
 E2 =    -0.8595276080D+00 EUMP2 =    -0.14627734947930D+03
 CCSD(T)
 CCSD(T)= -0.14625672763D+03

 Unable to determine electronic state:  partially filled degenerate orbitals.
 Alpha  occ. eigenvalues --   -4.58546  -2.94425  -2.94425  -2.94387  -0.49260
 Alpha  occ. eigenvalues --   -0.49030  -0.44540  -0.44227  -0.44227  -0.32797
 Alpha virt. eigenvalues --   -0.00110   0.02668   0.02668   0.03389   0.04837
 Alpha virt. eigenvalues --    0.09458   0.09458   0.10161   0.11283   0.11326
 Alpha virt. eigenvalues --    0.11543   0.11543   0.11587   0.18809   0.24912

 Mulliken charges and spin densities:
               1          2
     1  Co   0.368177   1.983928
     2  H   -0.368177   0.016072
 Sum of Mulliken charges =  -0.00000   2.00000

 Dipole moment (field-independent basis, Debye):
    X=              0.0000    Y=              0.0000    Z=              4.4781  Tot=              4.4781
 Quadrupole moment (field-independent basis, Debye-Ang):
   XX=            -13.8743   YY=            -13.8743   ZZ=            -18.1385
   XY=              0.0000   XZ=              0.0000   YZ=              0.0000

 \\#P ROCCSD(T)=(MaxCyc=150, Full)/Gen SCF=(maxcycle=400, vshift=200) P
 \PMP2-0=-146.2773495\MP4SDQ=-146.2523255\CCSD=-146.2265813\CCSD(T)=-14
 Normal termination of Gaussian 16 at Sun Apr 22 02:18:11 2018.
