 Gaussian 16, Revision A.03,
 Gaussian 16:  ES64L-G16RevA.03 25-Dec-2016

 ----------------------------------------------------------------------
 #P ROCCSD(T)=(MaxCyc=150, Full)/Gen SCF=(maxcycle=400, vshift=200) Pse
 udo=Read Integral(NoXCTest) Pop=Regular MaxDisk=500GB Guess=Read IOp(5
 /15=2)
 ----------------------------------------------------------------------

 ---
 CoH
 ---
 Symbolic Z-matrix:
 Charge =  0 Multiplicity = 3

                         Standard orientation:
 ---------------------------------------------------------------------
 Center     Atomic      Atomic             Coordinates (Angstroms)
 Number     Number       Type             X           Y           Z
 ---------------------------------------------------------------------
      1         27           0        0.000000    0.000000    0.057143
      2          1           0        0.000000    0.000000   -1.542857
 ---------------------------------------------------------------------

 SCF Done:  E(ROHF) =  -145.419370242     A.U. after   30 cycles
 E2 =    -0.9206365499D+00 EUMP2 =    -0.14634000679232D+03
 CCSD(T)
 CCSD(T)= -0.14631551840D+03

 Unable to determine electronic state:  partially filled degenerate orbitals.
 Alpha  occ. eigenvalues --   -4.58548  -2.94419  -2.94419  -2.94381  -0.49260
 Alpha  occ. eigenvalues --   -0.49030  -0.44550  -0.44240  -0.44240  -0.32798
 Alpha virt. eigenvalues --   -0.00176   0.02335   0.02335   0.02753   0.03940
 Alpha virt. eigenvalues --    0.06419   0.06615   0.06626   0.06882   0.06882
 Alpha virt. eigenvalues --    0.08253   0.08253   0.08803   0.14424   0.18030

 Mulliken charges and spin densities:
               1          2
     1  Co   0.323548   1.991041
     2  H   -0.323548   0.008959
 Sum of Mulliken charges =  -0.00000   2.00000

 Dipole moment (field-independent basis, Debye):
    X=              0.0000    Y=              0.0000    Z=              4.4734  Tot=              4.4734
 Quadrupole moment (field-independent basis, Debye-Ang):
   XX=            -13.8617   YY=            -13.8617   ZZ=            -18.1447
   XY=              0.0000   XZ=              0.0000   YZ=              0.0000

 \\#P ROCCSD(T)=(MaxCyc=150, Full)/Gen SCF=(maxcycle=400, vshift=200) P
 \PMP2-0=-146.3400068\MP4SDQ=-146.308176\CCSD=-146.2832499\CCSD(T)=-146
 Normal termination of Gaussian 16 at Sat Apr 28 23:53:04 2018.
