 Gaussian 16, Revision A.03,
 Gaussian 16:  ES64L-G16RevA.03 25-Dec-2016

 ----------------------------------------------------------------------
 #P ROCCSD(T)=(maxcyc=150, Full, SaveAmplitudes, ReadAmplitudes)/Gen 5d
  7f SCF=(maxcycles=300) Integral(NoXCTest, DKHSO) MaxDisk=500GB Pop=Re
 gular Guess=Read
 ----------------------------------------------------------------------

 ---
 MnO
 ---
 Symbolic Z-matrix:
 Charge =  0 Multiplicity = 6

                         Standard orientation:
 ---------------------------------------------------------------------
 Center     Atomic      Atomic             Coordinates (Angstroms)
 Number     Number       Type             X           Y           Z
 ---------------------------------------------------------------------
      1         25           0        0.000000    0.000000    0.290909
      2          8           0        0.000000    0.000000   -0.909091
 ---------------------------------------------------------------------

 SCF Done:  E(ROHF) =  -1231.91532687     A.U. after   23 cycles
 E2 =    -0.1446457192D+01 EUMP2 =    -0.12333617840670D+04
 CCSD(T)
 CCSD(T)= -0.12333459979D+04

 The electronic state is 6-SG.
 Alpha  occ. eigenvalues -- -242.48386 -29.58204 -24.93705 -24.93705 -24.92874
 Alpha  occ. eigenvalues --  -20.60160  -4.07011  -2.75278  -2.70623  -2.70623
 Alpha  occ. eigenvalues --   -1.28001  -0.78450  -0.78450  -0.65867  -0.59570
 Alpha  occ. eigenvalues --   -0.59570  -0.38107  -0.38107  -0.28878
 Alpha virt. eigenvalues --    0.02214   0.02425   0.02425   0.02744   0.05520
 Alpha virt. eigenvalues --    0.06004   0.06004   0.06018   0.06018   0.08093
 Alpha virt. eigenvalues --    0.08093   0.09004   0.10970   0.15175   0.18364

 Mulliken charges and spin densities:
               1          2
     1  Mn   0.943290   4.674938
     2  O   -0.943290   0.325062
 Sum of Mulliken charges =  -0.00000   5.00000

 Dipole moment (field-independent basis, Debye):
    X=              0.0000    Y=             -0.0000    Z=              1.2794  Tot=              1.2794
 Quadrupole moment (field-independent basis, Debye-Ang):
   XX=            -20.5327   YY=            -20.5327   ZZ=            -22.7035
   XY=              0.0000   XZ=             -0.0000   YZ=             -0.0000

 \\#P ROCCSD(T)=(maxcyc=150, Full, SaveAmplitudes, ReadAmplitudes)/Gen
 9153269\PMP2-0=-1233.3617841\CCSD=-1233.3046351\CCSD(T)=-1233.3459979\
 Normal termination of Gaussian 16 at Wed Mar  7 06:02:48 2018.
