 Gaussian 16, Revision A.03,
 Gaussian 16:  ES64L-G16RevA.03 25-Dec-2016

 ----------------------------------------------------------------------
 #P ROCCSD(T)=(maxcyc=150, Full, SaveAmplitudes, ReadAmplitudes)/Gen 5d
  7f SCF=(maxcycles=300) Integral(NoXCTest) MaxDisk=500GB Pop=Regular P
 seudo=Read Guess=Read IOp(5/15=2)
 ----------------------------------------------------------------------

 ---
 ScO
 ---
 Symbolic Z-matrix:
 Charge =  0 Multiplicity = 2

                         Standard orientation:
 ---------------------------------------------------------------------
 Center     Atomic      Atomic             Coordinates (Angstroms)
 Number     Number       Type             X           Y           Z
 ---------------------------------------------------------------------
      1         21           0        0.000000    0.000000    0.551724
      2          8           0        0.000000    0.000000   -1.448276
 ---------------------------------------------------------------------

 SCF Done:  E(ROHF) =  -62.0134642866     A.U. after   20 cycles
 E2 =    -0.7028230952D+00 EUMP2 =    -0.62716287381793D+02
 CCSD(T)
 CCSD(T)= -0.62748674158D+02

 The electronic state is 2-SG.
 Alpha  occ. eigenvalues --   -2.77207  -1.70894  -1.70894  -1.70372  -1.08753
 Alpha  occ. eigenvalues --   -0.38897  -0.34643  -0.34643  -0.28478
 Alpha virt. eigenvalues --   -0.01313  -0.01313   0.00523   0.01754   0.02821
 Alpha virt. eigenvalues --    0.02821   0.03130   0.03130   0.03699   0.04384
 Alpha virt. eigenvalues --    0.04384   0.04995   0.05170   0.05170   0.09640

 Mulliken charges and spin densities:
               1          2
     1  Sc   1.190462   0.976938
     2  O   -1.190462   0.023062
 Sum of Mulliken charges =  -0.00000   1.00000

 Dipole moment (field-independent basis, Debye):
    X=              0.0000    Y=              0.0000    Z=              7.5189  Tot=              7.5189
 Quadrupole moment (field-independent basis, Debye-Ang):
   XX=            -22.0476   YY=            -22.0476   ZZ=            -34.6483
   XY=              0.0000   XZ=              0.0000   YZ=              0.0000

 \\#P ROCCSD(T)=(maxcyc=150, Full, SaveAmplitudes, ReadAmplitudes)/Gen
 3\CCSD=-62.6967765\CCSD(T)=-62.7486742\RMSD=5.384e-09\PG=C*V [C*(O1Sc1
 Normal termination of Gaussian 16 at Wed Feb 21 08:21:23 2018.
