 Gaussian 16, Revision A.03,
 Gaussian 16:  ES64L-G16RevA.03 25-Dec-2016

 ----------------------------------------------------------------------
 #P ROCCSD(T)=(MaxCyc=150, Full)/Gen SCF=(maxcycle=400) Pseudo=Read Int
 egral(NoXCTest) Pop=Regular MaxDisk=500GB
 ----------------------------------------------------------------------

 ---
 FeO
 ---
 Symbolic Z-matrix:
 Charge =  0 Multiplicity = 5

                         Standard orientation:
 ---------------------------------------------------------------------
 Center     Atomic      Atomic             Coordinates (Angstroms)
 Number     Number       Type             X           Y           Z
 ---------------------------------------------------------------------
      1         26           0        0.000000    0.000000    0.329412
      2          8           0        0.000000    0.000000   -1.070588
 ---------------------------------------------------------------------

 SCF Done:  E(ROHF) =  -138.597143617     A.U. after   29 cycles
 E2 =    -0.1036430611D+01 EUMP2 =    -0.13963357422724D+03
 CCSD(T)
 CCSD(T)= -0.13962971907D+03

 Unable to determine electronic state:  partially filled degenerate orbitals.
 Alpha  occ. eigenvalues --   -4.56528  -3.01193  -2.96039  -2.96039  -1.23871
 Alpha  occ. eigenvalues --   -0.72537  -0.72537  -0.63526  -0.59130  -0.58089
 Alpha  occ. eigenvalues --   -0.41775  -0.41775  -0.32809
 Alpha virt. eigenvalues --    0.00252   0.02329   0.02329   0.03580   0.04255
 Alpha virt. eigenvalues --    0.07680   0.07680   0.09870   0.09895   0.09900
 Alpha virt. eigenvalues --    0.10426   0.10426   0.13420   0.16017   0.25566

 Mulliken charges and spin densities:
               1          2
     1  Fe   0.920117   3.766868
     2  O   -0.920117   0.233132
 Sum of Mulliken charges =  -0.00000   4.00000

 Dipole moment (field-independent basis, Debye):
    X=              0.0000    Y=              0.0000    Z=              4.8889  Tot=              4.8889
 Quadrupole moment (field-independent basis, Debye-Ang):
   XX=            -19.0511   YY=            -19.0511   ZZ=            -21.3680
   XY=              0.0000   XZ=              0.0000   YZ=              0.0000

 \\#P ROCCSD(T)=(MaxCyc=150, Full)/Gen SCF=(maxcycle=400) Pseudo=Read I
 23316\CCSD=-139.5831796\CCSD(T)=-139.6297191\RMSD=9.184e-09\PG=C*V [C*
 Normal termination of Gaussian 16 at Sun Mar 25 00:29:42 2018.
