 Gaussian 16, Revision A.03,
 Gaussian 16:  ES64L-G16RevA.03 25-Dec-2016

 ----------------------------------------------------------------------
 #P ROCCSD(T)=(MaxCyc=150, Full)/Gen SCF=(maxcycle=400) Pseudo=Read Int
 egral(NoXCTest) Pop=Regular MaxDisk=500GB
 ----------------------------------------------------------------------

 ---
 FeO
 ---
 Symbolic Z-matrix:
 Charge =  0 Multiplicity = 5

                         Standard orientation:
 ---------------------------------------------------------------------
 Center     Atomic      Atomic             Coordinates (Angstroms)
 Number     Number       Type             X           Y           Z
 ---------------------------------------------------------------------
      1         26           0        0.000000    0.000000    0.329412
      2          8           0        0.000000    0.000000   -1.070588
 ---------------------------------------------------------------------

 SCF Done:  E(ROHF) =  -138.594540731     A.U. after   29 cycles
 E2 =    -0.1084249858D+01 EUMP2 =    -0.13967879058948D+03
 CCSD(T)
 CCSD(T)= -0.13967268458D+03

 Unable to determine electronic state:  partially filled degenerate orbitals.
 Alpha  occ. eigenvalues --   -4.56368  -3.01192  -2.96062  -2.96062  -1.23852
 Alpha  occ. eigenvalues --   -0.72544  -0.72544  -0.63525  -0.59133  -0.58081
 Alpha  occ. eigenvalues --   -0.41791  -0.41791  -0.32783
 Alpha virt. eigenvalues --    0.00216   0.02085   0.02085   0.03306   0.03952
 Alpha virt. eigenvalues --    0.06376   0.06376   0.06626   0.06636   0.06790
 Alpha virt. eigenvalues --    0.07889   0.07889   0.12008   0.14820   0.19383

 Mulliken charges and spin densities:
               1          2
     1  Fe   1.047882   3.779357
     2  O   -1.047882   0.220643
 Sum of Mulliken charges =   0.00000   4.00000

 Dipole moment (field-independent basis, Debye):
    X=              0.0000    Y=              0.0000    Z=              4.8705  Tot=              4.8705
 Quadrupole moment (field-independent basis, Debye-Ang):
   XX=            -19.0563   YY=            -19.0563   ZZ=            -21.3551
   XY=              0.0000   XZ=              0.0000   YZ=              0.0000

 \\#P ROCCSD(T)=(MaxCyc=150, Full)/Gen SCF=(maxcycle=400) Pseudo=Read I
 26499\CCSD=-139.6240096\CCSD(T)=-139.6726846\RMSD=3.229e-09\PG=C*V [C*
 Normal termination of Gaussian 16 at Sun Mar 25 02:34:41 2018.
