 Gaussian 16, Revision A.03,
 Gaussian 16:  ES64L-G16RevA.03 25-Dec-2016

 ----------------------------------------------------------------------
 #P ROCCSD(T)=(maxcyc=150, Full, SaveAmplitudes, ReadAmplitudes)/Gen 5d
  7f SCF=(maxcycles=300, VShift=400) Integral(NoXCTest) MaxDisk=500GB P
 op=Full Pseudo=Read Guess=Read IOp(5/15=2)
 ----------------------------------------------------------------------

 ---
 MnO
 ---
 Symbolic Z-matrix:
 Charge =  0 Multiplicity = 6

                         Standard orientation:
 ---------------------------------------------------------------------
 Center     Atomic      Atomic             Coordinates (Angstroms)
 Number     Number       Type             X           Y           Z
 ---------------------------------------------------------------------
      1         25           0        0.000000    0.000000    0.412121
      2          8           0        0.000000    0.000000   -1.287879
 ---------------------------------------------------------------------

 SCF Done:  E(ROHF) =  -119.364624872     A.U. after   62 cycles
 E2 =    -0.9033712256D+00 EUMP2 =    -0.12026799609751D+03
 CCSD(T)
 CCSD(T)= -0.12029714003D+03

 The electronic state is 6-SG.
 Alpha  occ. eigenvalues --   -4.16500  -2.75562  -2.75562  -2.74982  -1.10989
 Alpha  occ. eigenvalues --   -0.65113  -0.65113  -0.64320  -0.64320  -0.60245
 Alpha  occ. eigenvalues --   -0.34012  -0.34012  -0.33778
 Alpha virt. eigenvalues --   -0.04484   0.01587   0.01587   0.01874   0.03840
 Alpha virt. eigenvalues --    0.06715   0.06715   0.08209   0.08443   0.08443
 Alpha virt. eigenvalues --    0.09616   0.09616   0.13221   0.14028   0.23115

 Mulliken charges and spin densities:
               1          2
     1  Mn   1.147201   4.897046
     2  O   -1.147201   0.102954
 Sum of Mulliken charges =  -0.00000   5.00000

 Dipole moment (field-independent basis, Debye):
    X=              0.0000    Y=              0.0000    Z=              9.0588  Tot=              9.0588
 Quadrupole moment (field-independent basis, Debye-Ang):
   XX=            -18.7510   YY=            -18.7510   ZZ=            -23.7598
   XY=              0.0000   XZ=              0.0000   YZ=              0.0000

 \\#P ROCCSD(T)=(maxcyc=150, Full, SaveAmplitudes, ReadAmplitudes)/Gen
 4SDQ=-120.2647471\CCSD=-120.2553789\CCSD(T)=-120.29714\RMSD=9.479e-09\
 Normal termination of Gaussian 16 at Sun Mar 18 19:05:42 2018.
