 Gaussian 16, Revision A.03,
 Gaussian 16:  ES64L-G16RevA.03 25-Dec-2016

 ----------------------------------------------------------------------
 #P ROCCSD(T)=(maxcyc=150, Full, SaveAmplitudes, ReadAmplitudes)/Gen 5d
  7f SCF=(maxcycles=300) Integral(NoXCTest) MaxDisk=500GB Pop=Regular P
 seudo=Read Guess=Read
 ----------------------------------------------------------------------

 ---
 MnH
 ---
 Symbolic Z-matrix:
 Charge =  0 Multiplicity = 7

                         Standard orientation:
 ---------------------------------------------------------------------
 Center     Atomic      Atomic             Coordinates (Angstroms)
 Number     Number       Type             X           Y           Z
 ---------------------------------------------------------------------
      1         25           0        0.000000    0.000000    0.065385
      2          1           0        0.000000    0.000000   -1.634615
 ---------------------------------------------------------------------

 SCF Done:  E(ROHF) =  -104.252395087     A.U. after   20 cycles
 E2 =    -0.6132196501D+00 EUMP2 =    -0.10486561473726D+03
 CCSD(T)
 CCSD(T)= -0.10488794300D+03

 The electronic state is 7-SG.
 Alpha  occ. eigenvalues --   -4.09866  -2.76063  -2.76063  -2.75977  -0.64102
 Alpha  occ. eigenvalues --   -0.64102  -0.63888  -0.63402  -0.63402  -0.40818
 Alpha  occ. eigenvalues --   -0.26283
 Alpha virt. eigenvalues --    0.01155   0.01155   0.02151   0.02924   0.05000
 Alpha virt. eigenvalues --    0.05000   0.05654   0.05807   0.05807   0.06195
 Alpha virt. eigenvalues --    0.06195   0.09054   0.13365   0.14108   0.18016

 Mulliken charges and spin densities:
               1          2
     1  Mn   0.372371   5.952636
     2  H   -0.372371   0.047364
 Sum of Mulliken charges =  -0.00000   6.00000

 Dipole moment (field-independent basis, Debye):
    X=              0.0000    Y=              0.0000    Z=              1.2824  Tot=              1.2824
 Quadrupole moment (field-independent basis, Debye-Ang):
   XX=            -16.0601   YY=            -16.0601   ZZ=            -26.1974
   XY=              0.0000   XZ=              0.0000   YZ=              0.0000

 \\#P ROCCSD(T)=(maxcyc=150, Full, SaveAmplitudes, ReadAmplitudes)/Gen
 4.2523951\PMP2-0=-104.8656147\CCSD=-104.8708881\CCSD(T)=-104.887943\RM
 Normal termination of Gaussian 16 at Mon Feb 26 10:28:22 2018.
