 Gaussian 16, Revision A.03,
 Gaussian 16:  ES64L-G16RevA.03 25-Dec-2016

 ----------------------------------------------------------------------
 #P ROCCSD(T)=(maxcyc=150, Full, SaveAmplitudes, ReadAmplitudes)/Gen 5d
  7f SCF=(maxcycles=300) Integral(NoXCTest) MaxDisk=500GB Pop=Regular P
 seudo=Read Guess=Read IOp(5/15=2)
 ----------------------------------------------------------------------

 ---
 ScO
 ---
 Symbolic Z-matrix:
 Charge =  0 Multiplicity = 2

                         Standard orientation:
 ---------------------------------------------------------------------
 Center     Atomic      Atomic             Coordinates (Angstroms)
 Number     Number       Type             X           Y           Z
 ---------------------------------------------------------------------
      1         21           0        0.000000    0.000000    0.358621
      2          8           0        0.000000    0.000000   -0.941379
 ---------------------------------------------------------------------

 SCF Done:  E(ROHF) =  -61.7999060889     A.U. after   19 cycles
 E2 =    -0.6639889585D+00 EUMP2 =    -0.62463895047413D+02
 CCSD(T)
 CCSD(T)= -0.62492739037D+02

 The electronic state is 2-SG.
 Alpha  occ. eigenvalues --   -2.58740  -1.76671  -1.53011  -1.53011  -1.06765
 Alpha  occ. eigenvalues --   -0.57889  -0.57889  -0.47200  -0.19430
 Alpha virt. eigenvalues --    0.00991   0.00991   0.02037   0.02504   0.03782
 Alpha virt. eigenvalues --    0.03782   0.03799   0.03799   0.03902   0.04781
 Alpha virt. eigenvalues --    0.04781   0.07344   0.10856   0.10856   0.11016

 Mulliken charges and spin densities:
               1          2
     1  Sc   1.188736   1.005946
     2  O   -1.188736  -0.005946
 Sum of Mulliken charges =   0.00000   1.00000

 Dipole moment (field-independent basis, Debye):
    X=              0.0000    Y=              0.0000    Z=              0.1707  Tot=              0.1707
 Quadrupole moment (field-independent basis, Debye-Ang):
   XX=            -22.7723   YY=            -22.7723   ZZ=            -29.5801
   XY=              0.0000   XZ=              0.0000   YZ=              0.0000

 \\#P ROCCSD(T)=(maxcyc=150, Full, SaveAmplitudes, ReadAmplitudes)/Gen
 \CCSD=-62.462824\CCSD(T)=-62.492739\RMSD=1.329e-09\PG=C*V [C*(O1Sc1)]\
 Normal termination of Gaussian 16 at Mon Mar  5 18:22:12 2018.
