 Gaussian 16, Revision A.03,
 Gaussian 16:  ES64L-G16RevA.03 25-Dec-2016

 ----------------------------------------------------------------------
 #P ROCCSD(T)=(maxcyc=150, Full, SaveAmplitudes, ReadAmplitudes)/Gen 5d
  7f SCF=(maxcycles=300) Integral(NoXCTest) MaxDisk=500GB Pop=Regular P
 seudo=Read Guess=Read
 ----------------------------------------------------------------------

 ---
 MnH
 ---
 Symbolic Z-matrix:
 Charge =  0 Multiplicity = 7

                         Standard orientation:
 ---------------------------------------------------------------------
 Center     Atomic      Atomic             Coordinates (Angstroms)
 Number     Number       Type             X           Y           Z
 ---------------------------------------------------------------------
      1         25           0        0.000000    0.000000    0.073077
      2          1           0        0.000000    0.000000   -1.826923
 ---------------------------------------------------------------------

 SCF Done:  E(ROHF) =  -104.067424175     A.U. after   23 cycles
 E2 =    -0.5919185206D+00 EUMP2 =    -0.10465934269553D+03
 CCSD(T)
 CCSD(T)= -0.10468181366D+03

 The electronic state is 7-SG.
 Alpha  occ. eigenvalues --   -4.25068  -2.80685  -2.80685  -2.80399  -0.65371
 Alpha  occ. eigenvalues --   -0.65371  -0.64727  -0.64667  -0.64667  -0.39430
 Alpha  occ. eigenvalues --   -0.26745
 Alpha virt. eigenvalues --    0.01037   0.01037   0.02174   0.02889   0.04920
 Alpha virt. eigenvalues --    0.04920   0.05605   0.05773   0.05773   0.06196
 Alpha virt. eigenvalues --    0.06196   0.09440   0.12609   0.13817   0.18033

 Mulliken charges and spin densities:
               1          2
     1  Mn   0.383328   5.953309
     2  H   -0.383328   0.046691
 Sum of Mulliken charges =  -0.00000   6.00000

 Dipole moment (field-independent basis, Debye):
    X=              0.0000    Y=              0.0000    Z=              2.0250  Tot=              2.0250
 Quadrupole moment (field-independent basis, Debye-Ang):
   XX=            -16.3825   YY=            -16.3825   ZZ=            -27.4425
   XY=              0.0000   XZ=              0.0000   YZ=              0.0000

 \\#P ROCCSD(T)=(maxcyc=150, Full, SaveAmplitudes, ReadAmplitudes)/Gen
 4.0674242\PMP2-0=-104.6593427\CCSD=-104.6655914\CCSD(T)=-104.6818137\R
 Normal termination of Gaussian 16 at Mon Feb 26 16:40:36 2018.
