 Gaussian 16, Revision A.03,
 Gaussian 16:  ES64L-G16RevA.03 25-Dec-2016

 ----------------------------------------------------------------------
 #P ROCCSD(T)=(maxcyc=150, Full, SaveAmplitudes, ReadAmplitudes)/Gen 5d
  7f SCF=(maxcycles=300) Integral(NoXCTest) MaxDisk=500GB Pop=Regular P
 seudo=Read Guess=Read
 ----------------------------------------------------------------------

 ---
 MnO
 ---
 Symbolic Z-matrix:
 Charge =  0 Multiplicity = 6

                         Standard orientation:
 ---------------------------------------------------------------------
 Center     Atomic      Atomic             Coordinates (Angstroms)
 Number     Number       Type             X           Y           Z
 ---------------------------------------------------------------------
      1         25           0        0.000000    0.000000    0.460606
      2          8           0        0.000000    0.000000   -1.439394
 ---------------------------------------------------------------------

 SCF Done:  E(ROHF) =  -119.176938424     A.U. after   22 cycles
 E2 =    -0.9255970677D+00 EUMP2 =    -0.12010253549141D+03
 CCSD(T)
 CCSD(T)= -0.12012788142D+03

 The electronic state is 6-SG.
 Alpha  occ. eigenvalues --   -4.18112  -2.82345  -2.82345  -2.81900  -1.10312
 Alpha  occ. eigenvalues --   -0.65962  -0.65962  -0.65873  -0.65873  -0.63361
 Alpha  occ. eigenvalues --   -0.34764  -0.34764  -0.32336
 Alpha virt. eigenvalues --   -0.05328   0.01102   0.01102   0.01394   0.03343
 Alpha virt. eigenvalues --    0.05528   0.05528   0.05694   0.05694   0.06360
 Alpha virt. eigenvalues --    0.06750   0.06750   0.10775   0.12567   0.17879

 Mulliken charges and spin densities:
               1          2
     1  Mn   1.057358   4.960476
     2  O   -1.057358   0.039524
 Sum of Mulliken charges =  -0.00000   5.00000

 Dipole moment (field-independent basis, Debye):
    X=              0.0000    Y=              0.0000    Z=              9.2545  Tot=              9.2545
 Quadrupole moment (field-independent basis, Debye-Ang):
   XX=            -19.3270   YY=            -19.3270   ZZ=            -25.1908
   XY=              0.0000   XZ=              0.0000   YZ=              0.0000

 \\#P ROCCSD(T)=(maxcyc=150, Full, SaveAmplitudes, ReadAmplitudes)/Gen
 9.1769384\PMP2-0=-120.1025355\CCSD=-120.0865621\CCSD(T)=-120.1278814\R
 Normal termination of Gaussian 16 at Sat Mar 10 12:02:09 2018.
