 Gaussian 16, Revision A.03,
 Gaussian 16:  ES64L-G16RevA.03 25-Dec-2016

 ----------------------------------------------------------------------
 #P ROCCSD(T)=(MaxCyc=150, Full)/Gen SCF=(maxcycle=400, vshift=200) Pse
 udo=Read Integral(NoXCTest) Pop=Regular MaxDisk=500GB Guess=Read IOp(5
 /15=2)
 ----------------------------------------------------------------------

 ---
 ZnH
 ---
 Symbolic Z-matrix:
 Charge =  0 Multiplicity = 2

                         Standard orientation:
 ---------------------------------------------------------------------
 Center     Atomic      Atomic             Coordinates (Angstroms)
 Number     Number       Type             X           Y           Z
 ---------------------------------------------------------------------
      1         30           0        0.000000    0.000000    0.058065
      2          1           0        0.000000    0.000000   -1.741935
 ---------------------------------------------------------------------

 SCF Done:  E(ROHF) =  -225.796275458     A.U. after   18 cycles
 E2 =    -0.1109258243D+01 EUMP2 =    -0.22690553370065D+03
 CCSD(T)
 CCSD(T)= -0.22685942770D+03

 The electronic state is 2-SG.
 Alpha  occ. eigenvalues --   -5.88208  -3.96200  -3.96200  -3.95918  -0.80547
 Alpha  occ. eigenvalues --   -0.80547  -0.80166  -0.80039  -0.80039  -0.43706
 Alpha  occ. eigenvalues --   -0.28433
 Alpha virt. eigenvalues --    0.01792   0.01792   0.02373   0.03219   0.06135
 Alpha virt. eigenvalues --    0.06135   0.06751   0.12153   0.12771   0.15338
 Alpha virt. eigenvalues --    0.15338   0.15354   0.15354   0.17831   0.20952

 Mulliken charges and spin densities:
               1          2
     1  Zn   0.282007   0.898059
     2  H   -0.282007   0.101941
 Sum of Mulliken charges =  -0.00000   1.00000

 Dipole moment (field-independent basis, Debye):
    X=              0.0000    Y=              0.0000    Z=              1.4084  Tot=              1.4084
 Quadrupole moment (field-independent basis, Debye-Ang):
   XX=            -14.8216   YY=            -14.8216   ZZ=            -21.9035
   XY=              0.0000   XZ=              0.0000   YZ=              0.0000

 \\#P ROCCSD(T)=(MaxCyc=150, Full)/Gen SCF=(maxcycle=400, vshift=200) P
 Normal termination of Gaussian 16 at Mon Apr 30 08:39:23 2018.
