 Gaussian 16, Revision A.03,
 Gaussian 16:  ES64L-G16RevA.03 25-Dec-2016

 ----------------------------------------------------------------------
 #P ROCCSD(T)=(MaxCyc=150, Full)/Gen SCF=(maxcycle=400, vshift=200) Pse
 udo=Read Integral(NoXCTest) Pop=Regular MaxDisk=500GB Guess=Read IOp(5
 /15=2)
 ----------------------------------------------------------------------

 ---
 ZnH
 ---
 Symbolic Z-matrix:
 Charge =  0 Multiplicity = 2

                         Standard orientation:
 ---------------------------------------------------------------------
 Center     Atomic      Atomic             Coordinates (Angstroms)
 Number     Number       Type             X           Y           Z
 ---------------------------------------------------------------------
      1         30           0        0.000000    0.000000    0.058065
      2          1           0        0.000000    0.000000   -1.741935
 ---------------------------------------------------------------------

 SCF Done:  E(ROHF) =  -225.795197071     A.U. after   21 cycles
 E2 =    -0.1027938472D+01 EUMP2 =    -0.22682313554315D+03
 CCSD(T)
 CCSD(T)= -0.22677983426D+03

 The electronic state is 2-SG.
 Alpha  occ. eigenvalues --   -5.88213  -3.96212  -3.96212  -3.95923  -0.80550
 Alpha  occ. eigenvalues --   -0.80550  -0.80164  -0.80038  -0.80038  -0.43708
 Alpha  occ. eigenvalues --   -0.28429
 Alpha virt. eigenvalues --    0.01964   0.01964   0.02966   0.03813   0.07494
 Alpha virt. eigenvalues --    0.07494   0.08748   0.15817   0.17184   0.23775
 Alpha virt. eigenvalues --    0.23775   0.24802   0.24802   0.25117   0.29490

 Mulliken charges and spin densities:
               1          2
     1  Zn   0.360333   0.902575
     2  H   -0.360333   0.097425
 Sum of Mulliken charges =  -0.00000   1.00000

 Dipole moment (field-independent basis, Debye):
    X=              0.0000    Y=              0.0000    Z=              1.4047  Tot=              1.4047
 Quadrupole moment (field-independent basis, Debye-Ang):
   XX=            -14.8242   YY=            -14.8242   ZZ=            -21.9085
   XY=              0.0000   XZ=              0.0000   YZ=              0.0000

 \\#P ROCCSD(T)=(MaxCyc=150, Full)/Gen SCF=(maxcycle=400, vshift=200) P
 CCSD(T)=-226.7798343\RMSD=8.799e-09\PG=C*V [C*(H1Zn1)]\\@
 Normal termination of Gaussian 16 at Sat Apr 21 11:01:18 2018.
