 Gaussian 16, Revision A.03,
 Gaussian 16:  ES64L-G16RevA.03 25-Dec-2016

 ----------------------------------------------------------------------
 #P ROCCSD(T)=(MaxCyc=150, Full)/Gen SCF=(maxcycle=400, vshift=200) Pse
 udo=Read Integral(NoXCTest) Pop=Regular MaxDisk=500GB Guess=Read IOp(5
 /15=2)
 ----------------------------------------------------------------------

 ---
 ZnH
 ---
 Symbolic Z-matrix:
 Charge =  0 Multiplicity = 2

                         Standard orientation:
 ---------------------------------------------------------------------
 Center     Atomic      Atomic             Coordinates (Angstroms)
 Number     Number       Type             X           Y           Z
 ---------------------------------------------------------------------
      1         30           0        0.000000    0.000000    0.058065
      2          1           0        0.000000    0.000000   -1.741935
 ---------------------------------------------------------------------

 SCF Done:  E(ROHF) =  -225.796171088     A.U. after   18 cycles
 E2 =    -0.1082731575D+01 EUMP2 =    -0.22687890266348D+03
 CCSD(T)
 CCSD(T)= -0.22683475154D+03

 The electronic state is 2-SG.
 Alpha  occ. eigenvalues --   -5.88208  -3.96201  -3.96201  -3.95917  -0.80547
 Alpha  occ. eigenvalues --   -0.80547  -0.80166  -0.80039  -0.80039  -0.43705
 Alpha  occ. eigenvalues --   -0.28432
 Alpha virt. eigenvalues --    0.01850   0.01850   0.02854   0.03441   0.06550
 Alpha virt. eigenvalues --    0.06550   0.07756   0.13865   0.16329   0.17909
 Alpha virt. eigenvalues --    0.17909   0.17975   0.17975   0.20822   0.23396

 Mulliken charges and spin densities:
               1          2
     1  Zn   0.319850   0.899168
     2  H   -0.319850   0.100832
 Sum of Mulliken charges =  -0.00000   1.00000

 Dipole moment (field-independent basis, Debye):
    X=              0.0000    Y=              0.0000    Z=              1.4079  Tot=              1.4079
 Quadrupole moment (field-independent basis, Debye-Ang):
   XX=            -14.8221   YY=            -14.8221   ZZ=            -21.9058
   XY=              0.0000   XZ=              0.0000   YZ=              0.0000

 \\#P ROCCSD(T)=(MaxCyc=150, Full)/Gen SCF=(maxcycle=400, vshift=200) P
 Normal termination of Gaussian 16 at Sat Apr 21 11:53:50 2018.
