 Gaussian 16, Revision A.03,
 Gaussian 16:  ES64L-G16RevA.03 25-Dec-2016

 ----------------------------------------------------------------------
 #P ROCCSD(T)=(maxcyc=150, Full, SaveAmplitudes, ReadAmplitudes)/Gen 5d
  7f SCF=(maxcycles=300) Integral(NoXCTest) MaxDisk=500GB Pop=Regular P
 seudo=Read Guess=Read
 ----------------------------------------------------------------------

 ---
 MnH
 ---
 Symbolic Z-matrix:
 Charge =  0 Multiplicity = 7

                         Standard orientation:
 ---------------------------------------------------------------------
 Center     Atomic      Atomic             Coordinates (Angstroms)
 Number     Number       Type             X           Y           Z
 ---------------------------------------------------------------------
      1         25           0        0.000000    0.000000    0.069231
      2          1           0        0.000000    0.000000   -1.730769
 ---------------------------------------------------------------------

 SCF Done:  E(ROHF) =  -104.069325046     A.U. after   21 cycles
 E2 =    -0.5937371529D+00 EUMP2 =    -0.10466306219878D+03
 CCSD(T)
 CCSD(T)= -0.10468491286D+03

 The electronic state is 7-SG.
 Alpha  occ. eigenvalues --   -4.24604  -2.80208  -2.80208  -2.79944  -0.64923
 Alpha  occ. eigenvalues --   -0.64923  -0.64438  -0.64212  -0.64212  -0.40157
 Alpha  occ. eigenvalues --   -0.26442
 Alpha virt. eigenvalues --    0.01115   0.01115   0.02173   0.02900   0.04989
 Alpha virt. eigenvalues --    0.04989   0.05630   0.05789   0.05789   0.06196
 Alpha virt. eigenvalues --    0.06196   0.09251   0.13006   0.13969   0.18056

 Mulliken charges and spin densities:
               1          2
     1  Mn   0.384241   5.953945
     2  H   -0.384241   0.046055
 Sum of Mulliken charges =  -0.00000   6.00000

 Dipole moment (field-independent basis, Debye):
    X=              0.0000    Y=              0.0000    Z=              1.6531  Tot=              1.6531
 Quadrupole moment (field-independent basis, Debye-Ang):
   XX=            -16.2885   YY=            -16.2885   ZZ=            -26.8868
   XY=              0.0000   XZ=              0.0000   YZ=              0.0000

 \\#P ROCCSD(T)=(maxcyc=150, Full, SaveAmplitudes, ReadAmplitudes)/Gen
 .069325\PMP2-0=-104.6630622\CCSD=-104.668646\CCSD(T)=-104.6849129\RMSD
 Normal termination of Gaussian 16 at Mon Feb 26 14:10:24 2018.
