 Gaussian 16, Revision A.03,
 Gaussian 16:  ES64L-G16RevA.03 25-Dec-2016

 ----------------------------------------------------------------------
 #P ROCCSD(T)=(maxcyc=150, Full, SaveAmplitudes, ReadAmplitudes)/Gen 5d
  7f SCF=(maxcycles=300, VShift=400) Integral(NoXCTest) MaxDisk=500GB P
 op=Regular Pseudo=Read Guess=Read IOp(5/15=2)
 ----------------------------------------------------------------------

 ---
 CrO
 ---
 Symbolic Z-matrix:
 Charge =  0 Multiplicity = 5

                         Standard orientation:
 ---------------------------------------------------------------------
 Center     Atomic      Atomic             Coordinates (Angstroms)
 Number     Number       Type             X           Y           Z
 ---------------------------------------------------------------------
      1         24           0        0.000000    0.000000    0.450000
      2          8           0        0.000000    0.000000   -1.350000
 ---------------------------------------------------------------------

 SCF Done:  E(ROHF) =  -101.989312854     A.U. after   77 cycles
 E2 =    -0.8643709305D+00 EUMP2 =    -0.10285368378487D+03
 CCSD(T)
 CCSD(T)= -0.10290878511D+03

 Unable to determine electronic state:  an orbital has unidentified symmetry.
 Alpha  occ. eigenvalues --   -3.69293  -2.47573  -2.42557  -2.41823  -1.09677
 Alpha  occ. eigenvalues --   -0.57149  -0.55506  -0.54888  -0.51814  -0.34060
 Alpha  occ. eigenvalues --   -0.32766  -0.32664
 Alpha virt. eigenvalues --   -0.04826   0.00669   0.01351   0.01707   0.03725
 Alpha virt. eigenvalues --    0.04932   0.06169   0.07410   0.07417   0.07627
 Alpha virt. eigenvalues --    0.08344   0.08722   0.12923   0.13945   0.15456

 Mulliken charges and spin densities:
               1          2
     1  Cr   1.177186   3.940652
     2  O   -1.177186   0.059348
 Sum of Mulliken charges =  -0.00000   4.00000

 Dipole moment (field-independent basis, Debye):
    X=              0.0000    Y=              0.0000    Z=              9.8504  Tot=              9.8504
 Quadrupole moment (field-independent basis, Debye-Ang):
   XX=            -19.5690   YY=            -18.7053   ZZ=            -23.9281
   XY=              0.0000   XZ=              0.0000   YZ=              0.0000

 \\#P ROCCSD(T)=(maxcyc=150, Full, SaveAmplitudes, ReadAmplitudes)/Gen
 2.8656871\CCSD=-102.8566117\CCSD(T)=-102.9087851\RMSD=8.383e-09\PG=C*V
 Normal termination of Gaussian 16 at Sun Mar 18 17:34:00 2018.
