 Gaussian 16, Revision A.03,
 Gaussian 16:  ES64L-G16RevA.03 25-Dec-2016

 ----------------------------------------------------------------------
 #P ROCCSD(T)=(maxcyc=150, Full, SaveAmplitudes, ReadAmplitudes)/Gen 5d
  7f SCF=(maxcycles=300, VShift=400) Integral(NoXCTest) MaxDisk=500GB P
 op=Full Pseudo=Read Guess=Read IOp(5/15=2)
 ----------------------------------------------------------------------

 ---
 MnO
 ---
 Symbolic Z-matrix:
 Charge =  0 Multiplicity = 6

                         Standard orientation:
 ---------------------------------------------------------------------
 Center     Atomic      Atomic             Coordinates (Angstroms)
 Number     Number       Type             X           Y           Z
 ---------------------------------------------------------------------
      1         25           0        0.000000    0.000000    0.387879
      2          8           0        0.000000    0.000000   -1.212121
 ---------------------------------------------------------------------

 SCF Done:  E(ROHF) =  -119.355408405     A.U. after   44 cycles
 E2 =    -0.9152396597D+00 EUMP2 =    -0.12027064806496D+03
 CCSD(T)
 CCSD(T)= -0.12029710752D+03

 The electronic state is 6-SG.
 Alpha  occ. eigenvalues --   -4.15461  -2.74384  -2.74384  -2.73617  -1.13350
 Alpha  occ. eigenvalues --   -0.65042  -0.65042  -0.63223  -0.63223  -0.57438
 Alpha  occ. eigenvalues --   -0.35062  -0.35062  -0.33963
 Alpha virt. eigenvalues --   -0.03291   0.01791   0.01791   0.02282   0.03834
 Alpha virt. eigenvalues --    0.06948   0.06948   0.08305   0.08550   0.08550
 Alpha virt. eigenvalues --    0.09697   0.09697   0.13733   0.13917   0.23451

 Mulliken charges and spin densities:
               1          2
     1  Mn   1.135454   4.855621
     2  O   -1.135454   0.144379
 Sum of Mulliken charges =  -0.00000   5.00000

 Dipole moment (field-independent basis, Debye):
    X=              0.0000    Y=              0.0000    Z=              8.2880  Tot=              8.2880
 Quadrupole moment (field-independent basis, Debye-Ang):
   XX=            -18.6854   YY=            -18.6854   ZZ=            -22.9597
   XY=              0.0000   XZ=              0.0000   YZ=              0.0000

 \\#P ROCCSD(T)=(maxcyc=150, Full, SaveAmplitudes, ReadAmplitudes)/Gen
 4SDQ=-120.2648301\CCSD=-120.2550854\CCSD(T)=-120.2971075\RMSD=6.946e-0
 Normal termination of Gaussian 16 at Sun Mar 18 19:03:42 2018.
