 Gaussian 16, Revision A.03,
 Gaussian 16:  ES64L-G16RevA.03 25-Dec-2016

 ----------------------------------------------------------------------
 #P ROCCSD(T)=(maxcyc=150, Full, SaveAmplitudes, ReadAmplitudes)/Gen 5d
  7f SCF=(maxcycles=300) Integral(NoXCTest) MaxDisk=500GB Pop=Regular P
 seudo=Read Guess=Read
 ----------------------------------------------------------------------

 ---
 TiO
 ---
 Symbolic Z-matrix:
 Charge =  0 Multiplicity = 3

                         Standard orientation:
 ---------------------------------------------------------------------
 Center     Atomic      Atomic             Coordinates (Angstroms)
 Number     Number       Type             X           Y           Z
 ---------------------------------------------------------------------
      1         22           0        0.000000    0.000000    0.480000
      2          8           0        0.000000    0.000000   -1.320000
 ---------------------------------------------------------------------

 SCF Done:  E(ROHF) =  -73.5046401372     A.U. after   21 cycles
 E2 =    -0.7823056723D+00 EUMP2 =    -0.74286945809502D+02
 CCSD(T)
 CCSD(T)= -0.74319683320D+02

 Unable to determine electronic state:  an orbital has unidentified symmetry.
 Alpha  occ. eigenvalues --   -3.08963  -1.95512  -1.95512  -1.91448  -1.13860
 Alpha  occ. eigenvalues --   -0.50846  -0.43211  -0.39425  -0.39425  -0.28893
 Alpha virt. eigenvalues --   -0.00454  -0.00454   0.00636   0.02110   0.03115
 Alpha virt. eigenvalues --    0.03115   0.03590   0.03646   0.03706   0.04324
 Alpha virt. eigenvalues --    0.04324   0.04670   0.07449   0.09932   0.10860

 Mulliken charges and spin densities:
               1          2
     1  Ti   1.021769   1.975838
     2  O   -1.021769   0.024162
 Sum of Mulliken charges =  -0.00000   2.00000

 Dipole moment (field-independent basis, Debye):
    X=              0.0000    Y=              0.0000    Z=              6.1668  Tot=              6.1668
 Quadrupole moment (field-independent basis, Debye-Ang):
   XX=            -21.5314   YY=            -21.5314   ZZ=            -30.0395
   XY=              0.0000   XZ=              0.0000   YZ=              0.0000

 \\#P ROCCSD(T)=(maxcyc=150, Full, SaveAmplitudes, ReadAmplitudes)/Gen
 -0=-74.2869458\CCSD=-74.2653762\CCSD(T)=-74.3196833\RMSD=1.536e-09\PG=
 Normal termination of Gaussian 16 at Mon Mar 12 15:42:51 2018.
