 Gaussian 16, Revision A.03,
 Gaussian 16:  ES64L-G16RevA.03 25-Dec-2016

 ----------------------------------------------------------------------
 #P ROCCSD(T)=(maxcyc=150, Full, SaveAmplitudes, ReadAmplitudes)/Gen 5d
  7f SCF=(maxcycles=300) Integral(NoXCTest) MaxDisk=500GB Pop=Regular P
 seudo=Read Guess=Read
 ----------------------------------------------------------------------

 ---
 ScO
 ---
 Symbolic Z-matrix:
 Charge =  0 Multiplicity = 2

                         Standard orientation:
 ---------------------------------------------------------------------
 Center     Atomic      Atomic             Coordinates (Angstroms)
 Number     Number       Type             X           Y           Z
 ---------------------------------------------------------------------
      1         21           0        0.000000    0.000000    0.386207
      2          8           0        0.000000    0.000000   -1.013793
 ---------------------------------------------------------------------

 SCF Done:  E(ROHF) =  -61.8973455646     A.U. after   17 cycles
 E2 =    -0.7044047061D+00 EUMP2 =    -0.62601750270750D+02
 CCSD(T)
 CCSD(T)= -0.62626802933D+02

 The electronic state is 2-SG.
 Alpha  occ. eigenvalues --   -2.59128  -1.71442  -1.54755  -1.54755  -1.09373
 Alpha  occ. eigenvalues --   -0.52533  -0.52533  -0.46211  -0.21016
 Alpha virt. eigenvalues --    0.00813   0.00813   0.02023   0.02043   0.02790
 Alpha virt. eigenvalues --    0.02790   0.02942   0.02942   0.02973   0.03935
 Alpha virt. eigenvalues --    0.03935   0.06229   0.07901   0.07901   0.08894

 Mulliken charges and spin densities:
               1          2
     1  Sc   1.097186   1.001608
     2  O   -1.097186  -0.001608
 Sum of Mulliken charges =  -0.00000   1.00000

 Dipole moment (field-independent basis, Debye):
    X=              0.0000    Y=              0.0000    Z=              1.5111  Tot=              1.5111
 Quadrupole moment (field-independent basis, Debye-Ang):
   XX=            -22.2729   YY=            -22.2729   ZZ=            -30.2228
   XY=              0.0000   XZ=              0.0000   YZ=              0.0000

 \\#P ROCCSD(T)=(maxcyc=150, Full, SaveAmplitudes, ReadAmplitudes)/Gen
 973456\PMP2-0=-62.6017503\CCSD=-62.592293\CCSD(T)=-62.6268029\RMSD=4.8
 Normal termination of Gaussian 16 at Wed Mar  7 12:56:28 2018.
