 Gaussian 16, Revision A.03,
 Gaussian 16:  ES64L-G16RevA.03 25-Dec-2016

 ----------------------------------------------------------------------
 #P ROCCSD(T)=(MaxCyc=150, Full)/Gen SCF=(maxcycle=400, vshift=200) Pse
 udo=Read Integral(NoXCTest) Pop=Regular MaxDisk=500GB Guess=Read IOp(5
 /15=2)
 ----------------------------------------------------------------------

 ---
 ZnH
 ---
 Symbolic Z-matrix:
 Charge =  0 Multiplicity = 2

                         Standard orientation:
 ---------------------------------------------------------------------
 Center     Atomic      Atomic             Coordinates (Angstroms)
 Number     Number       Type             X           Y           Z
 ---------------------------------------------------------------------
      1         30           0        0.000000    0.000000    0.058065
      2          1           0        0.000000    0.000000   -1.741935
 ---------------------------------------------------------------------

 SCF Done:  E(ROHF) =  -226.146171461     A.U. after   17 cycles
 E2 =    -0.1078085266D+01 EUMP2 =    -0.22722425672745D+03
 CCSD(T)
 CCSD(T)= -0.22718162706D+03

 The electronic state is 2-SG.
 Alpha  occ. eigenvalues --   -5.88814  -4.00546  -4.00546  -4.00259  -0.80436
 Alpha  occ. eigenvalues --   -0.80436  -0.80051  -0.79925  -0.79925  -0.43693
 Alpha  occ. eigenvalues --   -0.28480
 Alpha virt. eigenvalues --    0.01841   0.01841   0.02855   0.03442   0.06527
 Alpha virt. eigenvalues --    0.06527   0.07753   0.13877   0.16334   0.17915
 Alpha virt. eigenvalues --    0.17915   0.17980   0.17980   0.20794   0.23340

 Mulliken charges and spin densities:
               1          2
     1  Zn   0.319065   0.900847
     2  H   -0.319065   0.099153
 Sum of Mulliken charges =  -0.00000   1.00000

 Dipole moment (field-independent basis, Debye):
    X=              0.0000    Y=              0.0000    Z=              1.4003  Tot=              1.4003
 Quadrupole moment (field-independent basis, Debye-Ang):
   XX=            -14.8056   YY=            -14.8056   ZZ=            -21.8803
   XY=              0.0000   XZ=              0.0000   YZ=              0.0000

 \\#P ROCCSD(T)=(MaxCyc=150, Full)/Gen SCF=(maxcycle=400, vshift=200) P
 CCSD(T)=-227.1816271\RMSD=5.088e-09\PG=C*V [C*(H1Zn1)]\\@
 Normal termination of Gaussian 16 at Sat Apr 21 11:19:00 2018.
