 Gaussian 16, Revision A.03,
 Gaussian 16:  ES64L-G16RevA.03 25-Dec-2016

 ----------------------------------------------------------------------
 #P ROCCSD(T)=(MaxCyc=150, Full)/Gen SCF=(maxcycle=400, vshift=200) Pse
 udo=Read Integral(NoXCTest) Pop=Regular MaxDisk=500GB Guess=Read IOp(5
 /15=2)
 ----------------------------------------------------------------------

 ---
 ZnH
 ---
 Symbolic Z-matrix:
 Charge =  0 Multiplicity = 2

                         Standard orientation:
 ---------------------------------------------------------------------
 Center     Atomic      Atomic             Coordinates (Angstroms)
 Number     Number       Type             X           Y           Z
 ---------------------------------------------------------------------
      1         30           0        0.000000    0.000000    0.058065
      2          1           0        0.000000    0.000000   -1.741935
 ---------------------------------------------------------------------

 SCF Done:  E(ROHF) =  -226.145189218     A.U. after   21 cycles
 E2 =    -0.1023252163D+01 EUMP2 =    -0.22716844138114D+03
 CCSD(T)
 CCSD(T)= -0.22712664051D+03

 The electronic state is 2-SG.
 Alpha  occ. eigenvalues --   -5.88820  -4.00558  -4.00558  -4.00265  -0.80439
 Alpha  occ. eigenvalues --   -0.80439  -0.80049  -0.79924  -0.79924  -0.43695
 Alpha  occ. eigenvalues --   -0.28477
 Alpha virt. eigenvalues --    0.01954   0.01954   0.02967   0.03815   0.07467
 Alpha virt. eigenvalues --    0.07467   0.08743   0.15824   0.17193   0.23783
 Alpha virt. eigenvalues --    0.23783   0.24810   0.24810   0.25074   0.29416

 Mulliken charges and spin densities:
               1          2
     1  Zn   0.359460   0.904307
     2  H   -0.359460   0.095693
 Sum of Mulliken charges =  -0.00000   1.00000

 Dipole moment (field-independent basis, Debye):
    X=              0.0000    Y=              0.0000    Z=              1.3972  Tot=              1.3972
 Quadrupole moment (field-independent basis, Debye-Ang):
   XX=            -14.8078   YY=            -14.8078   ZZ=            -21.8830
   XY=              0.0000   XZ=              0.0000   YZ=              0.0000

 \\#P ROCCSD(T)=(MaxCyc=150, Full)/Gen SCF=(maxcycle=400, vshift=200) P
 CCSD(T)=-227.1266405\RMSD=7.818e-09\PG=C*V [C*(H1Zn1)]\\@
 Normal termination of Gaussian 16 at Sat Apr 21 10:26:20 2018.
