 Gaussian 16, Revision A.03,
 Gaussian 16:  ES64L-G16RevA.03 25-Dec-2016

 ----------------------------------------------------------------------
 #P ROCCSD(T)=(MaxCyc=150, Full)/Gen SCF=(maxcycle=400, vshift=200) Pse
 udo=Read Integral(NoXCTest) Pop=Regular MaxDisk=500GB Guess=Read IOp(5
 /15=2)
 ----------------------------------------------------------------------

 ---
 ZnH
 ---
 Symbolic Z-matrix:
 Charge =  0 Multiplicity = 2

                         Standard orientation:
 ---------------------------------------------------------------------
 Center     Atomic      Atomic             Coordinates (Angstroms)
 Number     Number       Type             X           Y           Z
 ---------------------------------------------------------------------
      1         30           0        0.000000    0.000000    0.058065
      2          1           0        0.000000    0.000000   -1.741935
 ---------------------------------------------------------------------

 SCF Done:  E(ROHF) =  -226.146273477     A.U. after   19 cycles
 E2 =    -0.1104616488D+01 EUMP2 =    -0.22725088996462D+03
 CCSD(T)
 CCSD(T)= -0.22720631467D+03

 The electronic state is 2-SG.
 Alpha  occ. eigenvalues --   -5.88815  -4.00546  -4.00546  -4.00260  -0.80436
 Alpha  occ. eigenvalues --   -0.80436  -0.80051  -0.79925  -0.79925  -0.43693
 Alpha  occ. eigenvalues --   -0.28481
 Alpha virt. eigenvalues --    0.01784   0.01784   0.02374   0.03220   0.06113
 Alpha virt. eigenvalues --    0.06113   0.06749   0.12154   0.12783   0.15341
 Alpha virt. eigenvalues --    0.15341   0.15358   0.15358   0.17813   0.20905

 Mulliken charges and spin densities:
               1          2
     1  Zn   0.281142   0.899742
     2  H   -0.281142   0.100258
 Sum of Mulliken charges =  -0.00000   1.00000

 Dipole moment (field-independent basis, Debye):
    X=              0.0000    Y=              0.0000    Z=              1.4009  Tot=              1.4009
 Quadrupole moment (field-independent basis, Debye-Ang):
   XX=            -14.8051   YY=            -14.8051   ZZ=            -21.8780
   XY=              0.0000   XZ=              0.0000   YZ=              0.0000

 \\#P ROCCSD(T)=(MaxCyc=150, Full)/Gen SCF=(maxcycle=400, vshift=200) P
 Normal termination of Gaussian 16 at Sun Apr 29 00:38:25 2018.
