 Gaussian 16, Revision A.03,
 Gaussian 16:  ES64L-G16RevA.03 25-Dec-2016

 ----------------------------------------------------------------------
 #P ROCCSD(T)=(maxcyc=150, Full, SaveAmplitudes, ReadAmplitudes)/Gen 5d
  7f SCF=(maxcycles=300) Integral(NoXCTest) MaxDisk=500GB Pop=Regular P
 seudo=Read Guess=Read
 ----------------------------------------------------------------------

 ---
 MnH
 ---
 Symbolic Z-matrix:
 Charge =  0 Multiplicity = 7

                         Standard orientation:
 ---------------------------------------------------------------------
 Center     Atomic      Atomic             Coordinates (Angstroms)
 Number     Number       Type             X           Y           Z
 ---------------------------------------------------------------------
      1         25           0        0.000000    0.000000    0.065385
      2          1           0        0.000000    0.000000   -1.634615
 ---------------------------------------------------------------------

 SCF Done:  E(ROHF) =  -104.068180121     A.U. after   21 cycles
 E2 =    -0.5960580926D+00 EUMP2 =    -0.10466423821385D+03
 CCSD(T)
 CCSD(T)= -0.10468556987D+03

 The electronic state is 7-SG.
 Alpha  occ. eigenvalues --   -4.24187  -2.79769  -2.79769  -2.79547  -0.64513
 Alpha  occ. eigenvalues --   -0.64513  -0.64301  -0.63814  -0.63814  -0.40837
 Alpha  occ. eigenvalues --   -0.26104
 Alpha virt. eigenvalues --    0.01181   0.01181   0.02151   0.02928   0.05047
 Alpha virt. eigenvalues --    0.05047   0.05649   0.05804   0.05804   0.06196
 Alpha virt. eigenvalues --    0.06196   0.09061   0.13360   0.14109   0.18061

 Mulliken charges and spin densities:
               1          2
     1  Mn   0.390648   5.953591
     2  H   -0.390648   0.046409
 Sum of Mulliken charges =  -0.00000   6.00000

 Dipole moment (field-independent basis, Debye):
    X=              0.0000    Y=              0.0000    Z=              1.2937  Tot=              1.2937
 Quadrupole moment (field-independent basis, Debye-Ang):
   XX=            -16.2021   YY=            -16.2021   ZZ=            -26.4111
   XY=              0.0000   XZ=              0.0000   YZ=              0.0000

 \\#P ROCCSD(T)=(maxcyc=150, Full, SaveAmplitudes, ReadAmplitudes)/Gen
 4.0681801\PMP2-0=-104.6642382\CCSD=-104.6691982\CCSD(T)=-104.6855699\R
 Normal termination of Gaussian 16 at Mon Feb 26 11:39:41 2018.
