 Gaussian 16, Revision A.03,
 Gaussian 16:  ES64L-G16RevA.03 25-Dec-2016

 ----------------------------------------------------------------------
 #P ROCCSD(T)=(maxcyc=150, Full, SaveAmplitudes, ReadAmplitudes)/Gen 5d
  7f SCF=(maxcycles=300) Integral(NoXCTest) MaxDisk=500GB Pop=Regular P
 seudo=Read Guess=Read
 ----------------------------------------------------------------------

 ---
 TiO
 ---
 Symbolic Z-matrix:
 Charge =  0 Multiplicity = 3

                         Standard orientation:
 ---------------------------------------------------------------------
 Center     Atomic      Atomic             Coordinates (Angstroms)
 Number     Number       Type             X           Y           Z
 ---------------------------------------------------------------------
      1         22           0        0.000000    0.000000    0.506667
      2          8           0        0.000000    0.000000   -1.393333
 ---------------------------------------------------------------------

 SCF Done:  E(ROHF) =  -73.3444116742     A.U. after   21 cycles
 E2 =    -0.7875999823D+00 EUMP2 =    -0.74132011656477D+02
 CCSD(T)
 CCSD(T)= -0.74167093056D+02

 Unable to determine electronic state:  an orbital has unidentified symmetry.
 Alpha  occ. eigenvalues --   -3.09042  -1.97698  -1.97698  -1.93094  -1.12292
 Alpha  occ. eigenvalues --   -0.52680  -0.41354  -0.37368  -0.37368  -0.29792
 Alpha virt. eigenvalues --   -0.00944  -0.00944  -0.00009   0.01836   0.02861
 Alpha virt. eigenvalues --    0.02861   0.03178   0.03505   0.03673   0.04399
 Alpha virt. eigenvalues --    0.04399   0.04777   0.06482   0.09740   0.09856

 Mulliken charges and spin densities:
               1          2
     1  Ti   1.008471   1.979249
     2  O   -1.008471   0.020751
 Sum of Mulliken charges =  -0.00000   2.00000

 Dipole moment (field-independent basis, Debye):
    X=              0.0000    Y=              0.0000    Z=              7.0500  Tot=              7.0500
 Quadrupole moment (field-independent basis, Debye-Ang):
   XX=            -21.7186   YY=            -21.7186   ZZ=            -30.6242
   XY=              0.0000   XZ=              0.0000   YZ=              0.0000

 \\#P ROCCSD(T)=(maxcyc=150, Full, SaveAmplitudes, ReadAmplitudes)/Gen
 -0=-74.1320117\CCSD=-74.108083\CCSD(T)=-74.1670931\RMSD=1.232e-09\PG=C
 Normal termination of Gaussian 16 at Sun Mar 11 07:29:54 2018.
