 Gaussian 16, Revision A.03,
 Gaussian 16:  ES64L-G16RevA.03 25-Dec-2016

 ----------------------------------------------------------------------
 #P ROCCSD(T)=(maxcyc=150, Full, SaveAmplitudes, ReadAmplitudes)/Gen 5d
  7f SCF=(maxcycles=300, VShift=400) Integral(NoXCTest) MaxDisk=500GB P
 op=Full Pseudo=Read Guess=Read
 ----------------------------------------------------------------------

 ---
 MnH
 ---
 Symbolic Z-matrix:
 Charge =  0 Multiplicity = 7

                         Standard orientation:
 ---------------------------------------------------------------------
 Center     Atomic      Atomic             Coordinates (Angstroms)
 Number     Number       Type             X           Y           Z
 ---------------------------------------------------------------------
      1         25           0        0.000000    0.000000    0.050000
      2          1           0        0.000000    0.000000   -1.250000
 ---------------------------------------------------------------------

 SCF Done:  E(ROHF) =  -103.724804867     A.U. after   32 cycles
 E2 =    -0.6192891855D+00 EUMP2 =    -0.10434409405213D+03
 CCSD(T)
 CCSD(T)= -0.10436357658D+03

 The electronic state is 7-SG.
 Alpha  occ. eigenvalues --   -4.13904  -2.76390  -2.75855  -2.75855  -0.66686
 Alpha  occ. eigenvalues --   -0.63635  -0.63635  -0.63438  -0.63438  -0.41742
 Alpha  occ. eigenvalues --   -0.24261
 Alpha virt. eigenvalues --    0.01321   0.01321   0.01955   0.03130   0.05166
 Alpha virt. eigenvalues --    0.05166   0.05715   0.05831   0.05831   0.06172
 Alpha virt. eigenvalues --    0.06172   0.08353   0.13981   0.15102   0.17899

 Mulliken charges and spin densities:
               1          2
     1  Mn   0.456090   5.912095
     2  H   -0.456090   0.087905
 Sum of Mulliken charges =  -0.00000   6.00000

 Dipole moment (field-independent basis, Debye):
    X=              0.0000    Y=              0.0000    Z=             -0.0373  Tot=              0.0373
 Quadrupole moment (field-independent basis, Debye-Ang):
   XX=            -15.9727   YY=            -15.9727   ZZ=            -25.3695
   XY=              0.0000   XZ=              0.0000   YZ=              0.0000

 \\#P ROCCSD(T)=(maxcyc=150, Full, SaveAmplitudes, ReadAmplitudes)/Gen
 \PUHF=-103.7248049\PMP2-0=-104.3440941\CCSD=-104.3457994\CCSD(T)=-104.
 Normal termination of Gaussian 16 at Thu Apr 19 08:20:23 2018.
