 Gaussian 16, Revision A.03,
 Gaussian 16:  ES64L-G16RevA.03 25-Dec-2016

 ----------------------------------------------------------------------
 #P ROCCSD(T)=(maxcyc=150, Full)/Gen 5d 7f SCF=(maxcycles=300, NoVarAcc
 , VShift=200) MaxDisk=100GB Pop=Regular Pseudo=Read Guess=Read IOp(5/1
 5=2)
 ----------------------------------------------------------------------

 --
 Mn
 --
 Symbolic Z-matrix:
 Charge =  0 Multiplicity = 6

                         Standard orientation:
 ---------------------------------------------------------------------
 Center     Atomic      Atomic             Coordinates (Angstroms)
 Number     Number       Type             X           Y           Z
 ---------------------------------------------------------------------
      1         25           0        0.000000    0.000000    0.000000
 ---------------------------------------------------------------------

 SCF Done:  E(ROHF) =  -103.669658427     A.U. after   22 cycles
 E2 =    -0.5931338574D+00 EUMP2 =    -0.10426279228484D+03
 CCSD(T)
 CCSD(T)= -0.10428328632D+03

 The electronic state is 6-A1G.
 Alpha  occ. eigenvalues --   -4.13774  -2.81046  -2.81046  -2.81046  -0.62964
 Alpha  occ. eigenvalues --   -0.62964  -0.62964  -0.62964  -0.62964  -0.26748
 Alpha virt. eigenvalues --    0.01722   0.01722   0.01722   0.02545   0.05800
 Alpha virt. eigenvalues --    0.05800   0.05800   0.06095   0.06095   0.06095
 Alpha virt. eigenvalues --    0.06095   0.06095   0.13403   0.19350   0.19350

 Mulliken charges and spin densities:
               1          2
     1  Mn  -0.000000   5.000000
 Sum of Mulliken charges =  -0.00000   5.00000

 Dipole moment (field-independent basis, Debye):
    X=              0.0000    Y=              0.0000    Z=              0.0000  Tot=              0.0000
 Quadrupole moment (field-independent basis, Debye-Ang):
   XX=            -18.8556   YY=            -18.8556   ZZ=            -18.8556
   XY=             -0.0000   XZ=              0.0000   YZ=             -0.0000

 1\1\GINC-C506-021\SP\ROCCSD(T)-Full\Gen\Mn1(6)\AANNABE\30-Mar-2018\0\\
 #P ROCCSD(T)=(maxcyc=150, Full)/Gen 5d 7f SCF=(maxcycles=300, NoVarAcc
 , VShift=200) MaxDisk=100GB Pop=Regular Pseudo=Read Guess=Read IOp(5/1
 5=2)\\Mn\\0,6\Mn,0,0.,0.,0.\\Version=ES64L-G16RevA.03\State=6-A1G\HF=-
 103.6696584\MP2=-104.2627923\MP3=-104.2624075\PUHF=-103.6696584\PMP2-0
 =-104.2627923\MP4SDQ=-104.2648306\CCSD=-104.265028\CCSD(T)=-104.283286
 3\RMSD=9.031e-09\PG=OH [O(Mn1)]\\@

 Normal termination of Gaussian 16 at Fri Mar 30 11:04:19 2018.
