 Gaussian 16, Revision A.03,
 Gaussian 16:  ES64L-G16RevA.03 25-Dec-2016

 ----------------------------------------------------------------------
 #P ROCCSD(T)=(maxcyc=150, Full)/Gen 5d 7f SCF=(maxcycles=300) Integral
 (NoXCTest) MaxDisk=500GB Pop=Regular Pseudo=Read Guess=Read
 ----------------------------------------------------------------------

 ---
 CrH
 ---
 Symbolic Z-matrix:
 Charge =  0 Multiplicity = 6

                         Standard orientation:
 ---------------------------------------------------------------------
 Center     Atomic      Atomic             Coordinates (Angstroms)
 Number     Number       Type             X           Y           Z
 ---------------------------------------------------------------------
      1         24           0        0.000000    0.000000    0.060000
      2          1           0        0.000000    0.000000   -1.440000
 ---------------------------------------------------------------------

 SCF Done:  E(ROHF) =  -86.6832494712     A.U. after   24 cycles
 E2 =    -0.5720383377D+00 EUMP2 =    -0.87255287808879D+02
 CCSD(T)
 CCSD(T)= -0.87294946624D+02

 The electronic state is 6-SG.
 Alpha  occ. eigenvalues --   -3.69185  -2.44646  -2.44646  -2.40753  -0.51414
 Alpha  occ. eigenvalues --   -0.51414  -0.48459  -0.48459  -0.42663  -0.25612
 Alpha virt. eigenvalues --    0.01420   0.01420   0.01956   0.02267   0.04617
 Alpha virt. eigenvalues --    0.05232   0.05232   0.05397   0.05397   0.05677
 Alpha virt. eigenvalues --    0.05677   0.06515   0.09521   0.12707   0.16849

 Mulliken charges and spin densities:
               1          2
     1  Cr   0.346013   4.982405
     2  H   -0.346013   0.017595
 Sum of Mulliken charges =  -0.00000   5.00000

 Dipole moment (field-independent basis, Debye):
    X=              0.0000    Y=              0.0000    Z=              1.9594  Tot=              1.9594
 Quadrupole moment (field-independent basis, Debye-Ang):
   XX=            -16.9123   YY=            -16.9123   ZZ=            -22.0155
   XY=              0.0000   XZ=              0.0000   YZ=              0.0000

 \\#P ROCCSD(T)=(maxcyc=150, Full)/Gen 5d 7f SCF=(maxcycles=300) Integr
 7.2552878\MP4SDQ=-87.2647577\CCSD=-87.2759032\CCSD(T)=-87.2949466\RMSD
 Normal termination of Gaussian 16 at Tue Feb 13 02:55:57 2018.
