 Gaussian 16, Revision A.03,
 Gaussian 16:  ES64L-G16RevA.03 25-Dec-2016

 ----------------------------------------------------------------------
 #P ROCCSD(T)=(maxcyc=150, Full, SaveAmplitudes, ReadAmplitudes)/Gen 5d
  7f SCF=(maxcycles=300) Integral(NoXCTest) MaxDisk=500GB Pop=Regular P
 seudo=Read Guess=Read IOp(5/15=2)
 ----------------------------------------------------------------------

 ---
 CrH
 ---
 Symbolic Z-matrix:
 Charge =  0 Multiplicity = 6

                         Standard orientation:
 ---------------------------------------------------------------------
 Center     Atomic      Atomic             Coordinates (Angstroms)
 Number     Number       Type             X           Y           Z
 ---------------------------------------------------------------------
      1         24           0        0.000000    0.000000    0.064000
      2          1           0        0.000000    0.000000   -1.536000
 ---------------------------------------------------------------------

 SCF Done:  E(ROHF) =  -86.8742539444     A.U. after   25 cycles
 E2 =    -0.5539268775D+00 EUMP2 =    -0.87428180821958D+02
 CCSD(T)
 CCSD(T)= -0.87420777641D+02

 The electronic state is 6-SG.
 Alpha  occ. eigenvalues --   -3.66251  -2.42655  -2.42655  -2.38169  -0.53348
 Alpha  occ. eigenvalues --   -0.53348  -0.50130  -0.50130  -0.41907  -0.25825
 Alpha virt. eigenvalues --    0.01346   0.01346   0.02287   0.02528   0.05576
 Alpha virt. eigenvalues --    0.05576   0.05909   0.07649   0.07649   0.08060
 Alpha virt. eigenvalues --    0.08060   0.08763   0.10370   0.18069   0.21016

 Mulliken charges and spin densities:
               1          2
     1  Cr   0.519027   4.988042
     2  H   -0.519027   0.011958
 Sum of Mulliken charges =   0.00000   5.00000

 Dipole moment (field-independent basis, Debye):
    X=              0.0000    Y=              0.0000    Z=              1.8829  Tot=              1.8829
 Quadrupole moment (field-independent basis, Debye-Ang):
   XX=            -16.8499   YY=            -16.8499   ZZ=            -23.3798
   XY=              0.0000   XZ=              0.0000   YZ=              0.0000

 \\#P ROCCSD(T)=(maxcyc=150, Full, SaveAmplitudes, ReadAmplitudes)/Gen
 37\CCSD=-87.4089574\CCSD(T)=-87.4207776\RMSD=8.923e-09\PG=C*V [C*(H1Cr
 Normal termination of Gaussian 16 at Mon Feb 26 05:36:36 2018.
