 Gaussian 16, Revision A.03,
 Gaussian 16:  ES64L-G16RevA.03 25-Dec-2016

 ----------------------------------------------------------------------
 #P ROCCSD(T)=(maxcyc=150, Full, SaveAmplitudes, ReadAmplitudes)/Gen 5d
  7f SCF=(maxcycles=300) Integral(NoXCTest) MaxDisk=500GB Pop=Regular P
 seudo=Read Guess=Read
 ----------------------------------------------------------------------

 ---
 MnO
 ---
 Symbolic Z-matrix:
 Charge =  0 Multiplicity = 6

                         Standard orientation:
 ---------------------------------------------------------------------
 Center     Atomic      Atomic             Coordinates (Angstroms)
 Number     Number       Type             X           Y           Z
 ---------------------------------------------------------------------
      1         25           0        0.000000    0.000000    0.290909
      2          8           0        0.000000    0.000000   -0.909091
 ---------------------------------------------------------------------

 SCF Done:  E(ROHF) =  -119.067329681     A.U. after   22 cycles
 E2 =    -0.1000373573D+01 EUMP2 =    -0.12006770325445D+03
 CCSD(T)
 CCSD(T)= -0.12006780015D+03

 The electronic state is 6-SG.
 Alpha  occ. eigenvalues --   -4.07224  -2.75243  -2.71970  -2.71970  -1.28298
 Alpha  occ. eigenvalues --   -0.78265  -0.78265  -0.65843  -0.59680  -0.59680
 Alpha  occ. eigenvalues --   -0.38506  -0.38506  -0.29004
 Alpha virt. eigenvalues --    0.02207   0.02429   0.02429   0.02742   0.05502
 Alpha virt. eigenvalues --    0.06004   0.06004   0.06019   0.06019   0.08106
 Alpha virt. eigenvalues --    0.08106   0.08899   0.10936   0.15060   0.18327

 Mulliken charges and spin densities:
               1          2
     1  Mn   1.011761   4.692197
     2  O   -1.011761   0.307803
 Sum of Mulliken charges =  -0.00000   5.00000

 Dipole moment (field-independent basis, Debye):
    X=              0.0000    Y=              0.0000    Z=              1.2873  Tot=              1.2873
 Quadrupole moment (field-independent basis, Debye-Ang):
   XX=            -20.0978   YY=            -20.0978   ZZ=            -22.2574
   XY=              0.0000   XZ=              0.0000   YZ=              0.0000

 \\#P ROCCSD(T)=(maxcyc=150, Full, SaveAmplitudes, ReadAmplitudes)/Gen
 9.0673297\PMP2-0=-120.0677033\CCSD=-120.0272689\CCSD(T)=-120.0678002\R
 Normal termination of Gaussian 16 at Mon Mar 12 16:08:29 2018.
