 Gaussian 16, Revision A.03,
 Gaussian 16:  ES64L-G16RevA.03 25-Dec-2016

 ----------------------------------------------------------------------
 #P ROCCSD(T)=(maxcyc=150, Full)/Gen 5d 7f SCF=(maxcycles=300) Integral
 (NoXCTest) MaxDisk=500GB Pop=Regular Pseudo=Read Guess=Read
 ----------------------------------------------------------------------

 ---
 CrH
 ---
 Symbolic Z-matrix:
 Charge =  0 Multiplicity = 6

                         Standard orientation:
 ---------------------------------------------------------------------
 Center     Atomic      Atomic             Coordinates (Angstroms)
 Number     Number       Type             X           Y           Z
 ---------------------------------------------------------------------
      1         24           0        0.000000    0.000000    0.052000
      2          1           0        0.000000    0.000000   -1.248000
 ---------------------------------------------------------------------

 SCF Done:  E(ROHF) =  -86.6397845218     A.U. after   29 cycles
 E2 =    -0.5959252843D+00 EUMP2 =    -0.87235709806154D+02
 CCSD(T)
 CCSD(T)= -0.87262815941D+02

 The electronic state is 6-SG.
 Alpha  occ. eigenvalues --   -3.65171  -2.40489  -2.40489  -2.38190  -0.47212
 Alpha  occ. eigenvalues --   -0.47212  -0.44875  -0.44493  -0.44493  -0.25353
 Alpha virt. eigenvalues --    0.01617   0.01617   0.01741   0.02265   0.04645
 Alpha virt. eigenvalues --    0.05462   0.05462   0.05465   0.05465   0.05752
 Alpha virt. eigenvalues --    0.05752   0.06168   0.09446   0.13092   0.16918

 Mulliken charges and spin densities:
               1          2
     1  Cr   0.365287   4.984033
     2  H   -0.365287   0.015967
 Sum of Mulliken charges =  -0.00000   5.00000

 Dipole moment (field-independent basis, Debye):
    X=              0.0000    Y=              0.0000    Z=              2.0557  Tot=              2.0557
 Quadrupole moment (field-independent basis, Debye-Ang):
   XX=            -16.7352   YY=            -16.7352   ZZ=            -19.6153
   XY=              0.0000   XZ=              0.0000   YZ=              0.0000

 \\#P ROCCSD(T)=(maxcyc=150, Full)/Gen 5d 7f SCF=(maxcycles=300) Integr
 7.2357098\MP4SDQ=-87.2382081\CCSD=-87.2421549\CCSD(T)=-87.2628159\RMSD
 Normal termination of Gaussian 16 at Mon Feb 12 22:34:48 2018.
