 Gaussian 16, Revision A.03,
 Gaussian 16:  ES64L-G16RevA.03 25-Dec-2016

 ----------------------------------------------------------------------
 #P ROCCSD(T)=(maxcyc=150, Full, SaveAmplitudes, ReadAmplitudes)/Gen 5d
  7f SCF=(maxcycles=300) Integral(NoXCTest) MaxDisk=500GB Pop=Regular P
 seudo=Read Guess=Read IOp(5/15=2)
 ----------------------------------------------------------------------

 ---
 TiO
 ---
 Symbolic Z-matrix:
 Charge =  0 Multiplicity = 3

                         Standard orientation:
 ---------------------------------------------------------------------
 Center     Atomic      Atomic             Coordinates (Angstroms)
 Number     Number       Type             X           Y           Z
 ---------------------------------------------------------------------
      1         22           0        0.000000    0.000000    0.400000
      2          8           0        0.000000    0.000000   -1.100000
 ---------------------------------------------------------------------

 SCF Done:  E(ROHF) =  -73.3021109767     A.U. after   18 cycles
 E2 =    -0.7407031924D+00 EUMP2 =    -0.74042814169067D+02
 CCSD(T)
 CCSD(T)= -0.74069488665D+02

 Unable to determine electronic state:  an orbital has unidentified symmetry.
 Alpha  occ. eigenvalues --   -2.97452  -1.90474  -1.88268  -1.88268  -1.17088
 Alpha  occ. eigenvalues --   -0.49032  -0.49032  -0.48585  -0.42142  -0.24806
 Alpha virt. eigenvalues --    0.00734   0.00734   0.01913   0.02584   0.04399
 Alpha virt. eigenvalues --    0.04399   0.04947   0.05041   0.05235   0.05841
 Alpha virt. eigenvalues --    0.05841   0.07459   0.11380   0.11867   0.14115

 Mulliken charges and spin densities:
               1          2
     1  Ti   0.859765   2.009791
     2  O   -0.859765  -0.009791
 Sum of Mulliken charges =  -0.00000   2.00000

 Dipole moment (field-independent basis, Debye):
    X=              0.0000    Y=              0.0000    Z=              3.0736  Tot=              3.0736
 Quadrupole moment (field-independent basis, Debye-Ang):
   XX=            -21.5859   YY=            -21.5859   ZZ=            -28.4303
   XY=              0.0000   XZ=              0.0000   YZ=              0.0000

 \\#P ROCCSD(T)=(maxcyc=150, Full, SaveAmplitudes, ReadAmplitudes)/Gen
 86785\CCSD(T)=-74.0694887\RMSD=6.350e-09\PG=C*V [C*(O1Ti1)]\\@
 Normal termination of Gaussian 16 at Sat Mar 10 00:04:06 2018.
