 Gaussian 16, Revision A.03,
 Gaussian 16:  ES64L-G16RevA.03 25-Dec-2016

 ----------------------------------------------------------------------
 #P ROCCSD(T)=(maxcyc=150, Full, SaveAmplitudes, ReadAmplitudes)/Gen 5d
  7f SCF=(maxcycles=300) Integral(NoXCTest) MaxDisk=500GB Pop=Regular P
 seudo=Read Guess=Read
 ----------------------------------------------------------------------

 ---
 TiO
 ---
 Symbolic Z-matrix:
 Charge =  0 Multiplicity = 3

                         Standard orientation:
 ---------------------------------------------------------------------
 Center     Atomic      Atomic             Coordinates (Angstroms)
 Number     Number       Type             X           Y           Z
 ---------------------------------------------------------------------
      1         22           0        0.000000    0.000000    0.480000
      2          8           0        0.000000    0.000000   -1.320000
 ---------------------------------------------------------------------

 SCF Done:  E(ROHF) =  -73.3683465814     A.U. after   22 cycles
 E2 =    -0.7814916126D+00 EUMP2 =    -0.74149838193971D+02
 CCSD(T)
 CCSD(T)= -0.74182527831D+02

 Unable to determine electronic state:  an orbital has unidentified symmetry.
 Alpha  occ. eigenvalues --   -3.06082  -1.96076  -1.96076  -1.91977  -1.13999
 Alpha  occ. eigenvalues --   -0.50773  -0.43337  -0.39572  -0.39572  -0.28663
 Alpha virt. eigenvalues --   -0.00495  -0.00495   0.00688   0.02086   0.03104
 Alpha virt. eigenvalues --    0.03104   0.03583   0.03654   0.03704   0.04315
 Alpha virt. eigenvalues --    0.04315   0.04659   0.07353   0.09973   0.10790

 Mulliken charges and spin densities:
               1          2
     1  Ti   1.019165   1.976636
     2  O   -1.019165   0.023364
 Sum of Mulliken charges =  -0.00000   2.00000

 Dipole moment (field-independent basis, Debye):
    X=              0.0000    Y=              0.0000    Z=              6.0480  Tot=              6.0480
 Quadrupole moment (field-independent basis, Debye-Ang):
   XX=            -21.6130   YY=            -21.6130   ZZ=            -30.3473
   XY=              0.0000   XZ=              0.0000   YZ=              0.0000

 \\#P ROCCSD(T)=(maxcyc=150, Full, SaveAmplitudes, ReadAmplitudes)/Gen
 -0=-74.1498382\CCSD=-74.1282386\CCSD(T)=-74.1825278\RMSD=7.129e-10\PG=
 Normal termination of Gaussian 16 at Fri Mar  9 17:01:48 2018.
