 Gaussian 16, Revision A.03,
 Gaussian 16:  ES64L-G16RevA.03 25-Dec-2016

 ----------------------------------------------------------------------
 #P ROCCSD(T)=(maxcyc=150, Full, SaveAmplitudes, ReadAmplitudes)/Gen 5d
  7f SCF=(maxcycles=300, VShift=400) Integral(NoXCTest) MaxDisk=500GB P
 op=Full Pseudo=Read Guess=Read IOp(5/15=2)
 ----------------------------------------------------------------------

 ---
 MnO
 ---
 Symbolic Z-matrix:
 Charge =  0 Multiplicity = 6

                         Standard orientation:
 ---------------------------------------------------------------------
 Center     Atomic      Atomic             Coordinates (Angstroms)
 Number     Number       Type             X           Y           Z
 ---------------------------------------------------------------------
      1         25           0        0.000000    0.000000    0.460606
      2          8           0        0.000000    0.000000   -1.439394
 ---------------------------------------------------------------------

 SCF Done:  E(ROHF) =  -118.888497353     A.U. after   72 cycles
 E2 =    -0.8894833949D+00 EUMP2 =    -0.11977798074768D+03
 CCSD(T)
 CCSD(T)= -0.11980548905D+03

 The electronic state is 6-SG.
 Alpha  occ. eigenvalues --   -4.15874  -2.78300  -2.78300  -2.77861  -1.10366
 Alpha  occ. eigenvalues --   -0.66126  -0.66126  -0.66020  -0.66020  -0.63517
 Alpha  occ. eigenvalues --   -0.34797  -0.34797  -0.32310
 Alpha virt. eigenvalues --   -0.05268   0.01309   0.01309   0.01633   0.03799
 Alpha virt. eigenvalues --    0.06266   0.06266   0.08238   0.08313   0.08313
 Alpha virt. eigenvalues --    0.09309   0.09309   0.12687   0.13902   0.22523

 Mulliken charges and spin densities:
               1          2
     1  Mn   1.061057   4.953735
     2  O   -1.061057   0.046265
 Sum of Mulliken charges =  -0.00000   5.00000

 Dipole moment (field-independent basis, Debye):
    X=              0.0000    Y=              0.0000    Z=              9.2419  Tot=              9.2419
 Quadrupole moment (field-independent basis, Debye-Ang):
   XX=            -19.3365   YY=            -19.3365   ZZ=            -25.2374
   XY=              0.0000   XZ=              0.0000   YZ=              0.0000

 \\#P ROCCSD(T)=(maxcyc=150, Full, SaveAmplitudes, ReadAmplitudes)/Gen
 4SDQ=-119.7735359\CCSD=-119.7658558\CCSD(T)=-119.805489\RMSD=8.907e-09
 Normal termination of Gaussian 16 at Thu Apr 19 08:19:25 2018.
