 Gaussian 16, Revision A.03,
 Gaussian 16:  ES64L-G16RevA.03 25-Dec-2016

 ----------------------------------------------------------------------
 #P ROCCSD(T)=(maxcyc=150, Full, SaveAmplitudes, ReadAmplitudes)/Gen 5d
  7f SCF=(maxcycles=300) Integral(NoXCTest) MaxDisk=500GB Pop=Regular P
 seudo=Read Guess=Read
 ----------------------------------------------------------------------

 ---
 TiO
 ---
 Symbolic Z-matrix:
 Charge =  0 Multiplicity = 3

                         Standard orientation:
 ---------------------------------------------------------------------
 Center     Atomic      Atomic             Coordinates (Angstroms)
 Number     Number       Type             X           Y           Z
 ---------------------------------------------------------------------
      1         22           0        0.000000    0.000000    0.426667
      2          8           0        0.000000    0.000000   -1.173333
 ---------------------------------------------------------------------

 SCF Done:  E(ROHF) =  -73.5534690042     A.U. after   20 cycles
 E2 =    -0.7817590102D+00 EUMP2 =    -0.74335228014485D+02
 CCSD(T)
 CCSD(T)= -0.74361522896D+02

 Unable to determine electronic state:  an orbital has unidentified symmetry.
 Alpha  occ. eigenvalues --   -3.03850  -1.90466  -1.90466  -1.89358  -1.15428
 Alpha  occ. eigenvalues --   -0.46644  -0.45615  -0.44998  -0.44998  -0.26420
 Alpha virt. eigenvalues --    0.00384   0.00384   0.01423   0.02356   0.03671
 Alpha virt. eigenvalues --    0.03671   0.03701   0.03771   0.04175   0.04175
 Alpha virt. eigenvalues --    0.04206   0.05302   0.09163   0.10315   0.11596

 Mulliken charges and spin densities:
               1          2
     1  Ti   1.020886   1.968773
     2  O   -1.020886   0.031227
 Sum of Mulliken charges =  -0.00000   2.00000

 Dipole moment (field-independent basis, Debye):
    X=              0.0000    Y=              0.0000    Z=              4.2272  Tot=              4.2272
 Quadrupole moment (field-independent basis, Debye-Ang):
   XX=            -21.3987   YY=            -21.3987   ZZ=            -28.8399
   XY=              0.0000   XZ=              0.0000   YZ=              0.0000

 \\#P ROCCSD(T)=(maxcyc=150, Full, SaveAmplitudes, ReadAmplitudes)/Gen
 -74.335228\CCSD=-74.3147523\CCSD(T)=-74.3615229\RMSD=1.168e-09\PG=C*V
 Normal termination of Gaussian 16 at Mon Mar 12 15:42:39 2018.
