 Gaussian 16, Revision A.03,
 Gaussian 16:  ES64L-G16RevA.03 25-Dec-2016

 ----------------------------------------------------------------------
 #P ROCCSD(T)=(MaxCyc=150, Full)/Gen SCF=(maxcycle=400, vshift=200) Pse
 udo=Read Integral(NoXCTest) Pop=Regular MaxDisk=500GB Guess=Read IOp(5
 /15=2)
 ----------------------------------------------------------------------

 ---
 ZnH
 ---
 Symbolic Z-matrix:
 Charge =  0 Multiplicity = 2

                         Standard orientation:
 ---------------------------------------------------------------------
 Center     Atomic      Atomic             Coordinates (Angstroms)
 Number     Number       Type             X           Y           Z
 ---------------------------------------------------------------------
      1         30           0        0.000000    0.000000    0.045161
      2          1           0        0.000000    0.000000   -1.354839
 ---------------------------------------------------------------------

 SCF Done:  E(ROHF) =  -226.540891190     A.U. after   17 cycles
 E2 =    -0.1050586281D+01 EUMP2 =    -0.22759147747077D+03
 CCSD(T)
 CCSD(T)= -0.22754579536D+03

 The electronic state is 2-SG.
 Alpha  occ. eigenvalues --   -5.57643  -3.87067  -3.86906  -3.86906  -0.79960
 Alpha  occ. eigenvalues --   -0.79247  -0.79247  -0.78854  -0.78854  -0.47581
 Alpha  occ. eigenvalues --   -0.27415
 Alpha virt. eigenvalues --    0.02122   0.02122   0.02765   0.04032   0.07701
 Alpha virt. eigenvalues --    0.07701   0.08898   0.15867   0.18900   0.24412
 Alpha virt. eigenvalues --    0.24412   0.25111   0.25111   0.26038   0.28871

 Mulliken charges and spin densities:
               1          2
     1  Zn   0.304852   0.952510
     2  H   -0.304852   0.047490
 Sum of Mulliken charges =  -0.00000   1.00000

 Dipole moment (field-independent basis, Debye):
    X=              0.0000    Y=              0.0000    Z=              0.2168  Tot=              0.2168
 Quadrupole moment (field-independent basis, Debye-Ang):
   XX=            -14.3443   YY=            -14.3443   ZZ=            -20.5493
   XY=              0.0000   XZ=              0.0000   YZ=              0.0000

 \\#P ROCCSD(T)=(MaxCyc=150, Full)/Gen SCF=(maxcycle=400, vshift=200) P
 Normal termination of Gaussian 16 at Sat Apr 21 10:26:01 2018.
