 Gaussian 16, Revision A.03,
 Gaussian 16:  ES64L-G16RevA.03 25-Dec-2016

 ----------------------------------------------------------------------
 #P ROCCSD(T)=(MaxCyc=150, Full)/Gen SCF=(maxcycle=400, vshift=200) Pse
 udo=Read Integral(NoXCTest) Pop=Regular MaxDisk=500GB Guess=Read IOp(5
 /15=2)
 ----------------------------------------------------------------------

 ---
 ZnH
 ---
 Symbolic Z-matrix:
 Charge =  0 Multiplicity = 2

                         Standard orientation:
 ---------------------------------------------------------------------
 Center     Atomic      Atomic             Coordinates (Angstroms)
 Number     Number       Type             X           Y           Z
 ---------------------------------------------------------------------
      1         30           0        0.000000    0.000000    0.045161
      2          1           0        0.000000    0.000000   -1.354839
 ---------------------------------------------------------------------

 SCF Done:  E(ROHF) =  -226.542486209     A.U. after   15 cycles
 E2 =    -0.1105190077D+01 EUMP2 =    -0.22764767628624D+03
 CCSD(T)
 CCSD(T)= -0.22760114680D+03

 The electronic state is 2-SG.
 Alpha  occ. eigenvalues --   -5.57611  -3.87050  -3.86887  -3.86887  -0.79962
 Alpha  occ. eigenvalues --   -0.79247  -0.79247  -0.78857  -0.78857  -0.47577
 Alpha  occ. eigenvalues --   -0.27416
 Alpha virt. eigenvalues --    0.01998   0.01998   0.02615   0.03679   0.06754
 Alpha virt. eigenvalues --    0.06754   0.07932   0.14306   0.17500   0.17909
 Alpha virt. eigenvalues --    0.17909   0.18193   0.18193   0.21491   0.23175

 Mulliken charges and spin densities:
               1          2
     1  Zn   0.286595   0.939519
     2  H   -0.286595   0.060481
 Sum of Mulliken charges =  -0.00000   1.00000

 Dipole moment (field-independent basis, Debye):
    X=              0.0000    Y=              0.0000    Z=              0.2179  Tot=              0.2179
 Quadrupole moment (field-independent basis, Debye-Ang):
   XX=            -14.3401   YY=            -14.3401   ZZ=            -20.5512
   XY=              0.0000   XZ=              0.0000   YZ=              0.0000

 \\#P ROCCSD(T)=(MaxCyc=150, Full)/Gen SCF=(maxcycle=400, vshift=200) P
 CCSD(T)=-227.6011468\RMSD=7.337e-09\PG=C*V [C*(H1Zn1)]\\@
 Normal termination of Gaussian 16 at Sat Apr 21 11:18:17 2018.
