 Gaussian 16, Revision A.03,
 Gaussian 16:  ES64L-G16RevA.03 25-Dec-2016

 ----------------------------------------------------------------------
 #P ROCCSD(T)=(MaxCyc=150, Full)/Gen SCF=(maxcycle=400, vshift=200) Pse
 udo=Read Integral(NoXCTest) Pop=Regular MaxDisk=500GB Guess=Read IOp(5
 /15=2)
 ----------------------------------------------------------------------

 ---
 ZnH
 ---
 Symbolic Z-matrix:
 Charge =  0 Multiplicity = 2

                         Standard orientation:
 ---------------------------------------------------------------------
 Center     Atomic      Atomic             Coordinates (Angstroms)
 Number     Number       Type             X           Y           Z
 ---------------------------------------------------------------------
      1         30           0        0.000000    0.000000    0.045161
      2          1           0        0.000000    0.000000   -1.354839
 ---------------------------------------------------------------------

 SCF Done:  E(ROHF) =  -226.542806351     A.U. after   19 cycles
 E2 =    -0.1131461440D+01 EUMP2 =    -0.22767426779073D+03
 CCSD(T)
 CCSD(T)= -0.22762574633D+03

 The electronic state is 2-SG.
 Alpha  occ. eigenvalues --   -5.57623  -3.87049  -3.86885  -3.86885  -0.79961
 Alpha  occ. eigenvalues --   -0.79245  -0.79245  -0.78856  -0.78856  -0.47578
 Alpha  occ. eigenvalues --   -0.27417
 Alpha virt. eigenvalues --    0.01936   0.01936   0.02256   0.03326   0.06335
 Alpha virt. eigenvalues --    0.06335   0.06882   0.11868   0.13908   0.15352
 Alpha virt. eigenvalues --    0.15352   0.15513   0.15513   0.18727   0.20707

 Mulliken charges and spin densities:
               1          2
     1  Zn   0.257632   0.937987
     2  H   -0.257632   0.062013
 Sum of Mulliken charges =  -0.00000   1.00000

 Dipole moment (field-independent basis, Debye):
    X=              0.0000    Y=              0.0000    Z=              0.2180  Tot=              0.2180
 Quadrupole moment (field-independent basis, Debye-Ang):
   XX=            -14.3387   YY=            -14.3387   ZZ=            -20.5501
   XY=              0.0000   XZ=              0.0000   YZ=              0.0000

 \\#P ROCCSD(T)=(MaxCyc=150, Full)/Gen SCF=(maxcycle=400, vshift=200) P
 Normal termination of Gaussian 16 at Sun Apr 29 00:36:54 2018.
