 Gaussian 16, Revision A.03,
 Gaussian 16:  ES64L-G16RevA.03 25-Dec-2016

 ----------------------------------------------------------------------
 #P ROCCSD(T)=(maxcyc=150, Full, SaveAmplitudes, ReadAmplitudes)/Gen 5d
  7f SCF=(maxcycles=300) Integral(NoXCTest) MaxDisk=500GB Pop=Regular P
 seudo=Read Guess=Read IOp(5/15=2)
 ----------------------------------------------------------------------

 ---
 ScO
 ---
 Symbolic Z-matrix:
 Charge =  0 Multiplicity = 2

                         Standard orientation:
 ---------------------------------------------------------------------
 Center     Atomic      Atomic             Coordinates (Angstroms)
 Number     Number       Type             X           Y           Z
 ---------------------------------------------------------------------
      1         21           0        0.000000    0.000000    0.468966
      2          8           0        0.000000    0.000000   -1.231034
 ---------------------------------------------------------------------

 SCF Done:  E(ROHF) =  -61.8675703384     A.U. after   17 cycles
 E2 =    -0.6808762659D+00 EUMP2 =    -0.62548446604319D+02
 CCSD(T)
 CCSD(T)= -0.62577731829D+02

 The electronic state is 2-SG.
 Alpha  occ. eigenvalues --   -2.66405  -1.66831  -1.63823  -1.63823  -1.12644
 Alpha  occ. eigenvalues --   -0.42743  -0.41166  -0.41166  -0.25190
 Alpha virt. eigenvalues --   -0.00033  -0.00033   0.01448   0.02237   0.03541
 Alpha virt. eigenvalues --    0.03541   0.03578   0.03578   0.04202   0.04202
 Alpha virt. eigenvalues --    0.04380   0.05453   0.08070   0.08070   0.10525

 Mulliken charges and spin densities:
               1          2
     1  Sc   1.267557   0.974602
     2  O   -1.267557   0.025398
 Sum of Mulliken charges =  -0.00000   1.00000

 Dipole moment (field-independent basis, Debye):
    X=              0.0000    Y=              0.0000    Z=              4.8413  Tot=              4.8413
 Quadrupole moment (field-independent basis, Debye-Ang):
   XX=            -21.9252   YY=            -21.9252   ZZ=            -32.6182
   XY=              0.0000   XZ=              0.0000   YZ=              0.0000

 \\#P ROCCSD(T)=(maxcyc=150, Full, SaveAmplitudes, ReadAmplitudes)/Gen
 77\CCSD=-62.5374735\CCSD(T)=-62.5777318\RMSD=3.710e-09\PG=C*V [C*(O1Sc
 Normal termination of Gaussian 16 at Wed Feb 21 03:41:07 2018.
