 Gaussian 16, Revision A.03,
 Gaussian 16:  ES64L-G16RevA.03 25-Dec-2016

 ----------------------------------------------------------------------
 #P ROCCSD(T)=(maxcyc=150, Full, SaveAmplitudes, ReadAmplitudes)/Gen 5d
  7f SCF=(maxcycles=300) Integral(NoXCTest) MaxDisk=500GB Pop=Regular P
 seudo=Read Guess=Read
 ----------------------------------------------------------------------

 ---
 MnO
 ---
 Symbolic Z-matrix:
 Charge =  0 Multiplicity = 6

                         Standard orientation:
 ---------------------------------------------------------------------
 Center     Atomic      Atomic             Coordinates (Angstroms)
 Number     Number       Type             X           Y           Z
 ---------------------------------------------------------------------
      1         25           0        0.000000    0.000000    0.290909
      2          8           0        0.000000    0.000000   -0.909091
 ---------------------------------------------------------------------

 SCF Done:  E(ROHF) =  -118.865015729     A.U. after   22 cycles
 E2 =    -0.9781340824D+00 EUMP2 =    -0.11984314981162D+03
 CCSD(T)
 CCSD(T)= -0.11984220972D+03

 The electronic state is 6-SG.
 Alpha  occ. eigenvalues --   -4.21167  -2.79365  -2.75264  -2.75264  -1.29821
 Alpha  occ. eigenvalues --   -0.78626  -0.78626  -0.66022  -0.59761  -0.59761
 Alpha  occ. eigenvalues --   -0.38321  -0.38321  -0.28794
 Alpha virt. eigenvalues --    0.02213   0.02424   0.02424   0.02743   0.05517
 Alpha virt. eigenvalues --    0.06004   0.06004   0.06019   0.06019   0.08090
 Alpha virt. eigenvalues --    0.08090   0.08991   0.10954   0.15178   0.18379

 Mulliken charges and spin densities:
               1          2
     1  Mn   1.063594   4.695864
     2  O   -1.063594   0.304136
 Sum of Mulliken charges =  -0.00000   5.00000

 Dipole moment (field-independent basis, Debye):
    X=              0.0000    Y=              0.0000    Z=              1.2712  Tot=              1.2712
 Quadrupole moment (field-independent basis, Debye-Ang):
   XX=            -20.2225   YY=            -20.2225   ZZ=            -22.3699
   XY=              0.0000   XZ=              0.0000   YZ=              0.0000

 \\#P ROCCSD(T)=(maxcyc=150, Full, SaveAmplitudes, ReadAmplitudes)/Gen
 8.8650157\PMP2-0=-119.8431498\CCSD=-119.8027262\CCSD(T)=-119.8422097\R
 Normal termination of Gaussian 16 at Tue Mar 13 15:53:53 2018.
