 Gaussian 16, Revision A.03,
 Gaussian 16:  ES64L-G16RevA.03 25-Dec-2016

 ----------------------------------------------------------------------
 #P ROCCSD(T)=(maxcyc=150, Full)/Gen 5d 7f SCF=(maxcycles=300) Integral
 (NoXCTest) MaxDisk=500GB Pop=Regular Pseudo=Read IOp(5/15=2) Guess=Rea
 d
 ----------------------------------------------------------------------

 ---
 ScH
 ---
 Symbolic Z-matrix:
 Charge =  0 Multiplicity = 1

                         Standard orientation:
 ---------------------------------------------------------------------
 Center     Atomic      Atomic             Coordinates (Angstroms)
 Number     Number       Type             X           Y           Z
 ---------------------------------------------------------------------
      1         21           0        0.000000    0.000000    0.077273
      2          1           0        0.000000    0.000000   -1.622727
 ---------------------------------------------------------------------

 SCF Done:  E(ROHF) =  -46.7959024553     A.U. after   11 cycles
 E2 =    -0.4081379100D+00 EUMP2 =    -0.47204040365263D+02
 CCSD(T)
 CCSD(T)= -0.47248223526D+02

 The electronic state is 1-SG.
 Alpha  occ. eigenvalues --   -2.72092  -1.65743  -1.65578  -1.65578  -0.41733
 Alpha  occ. eigenvalues --   -0.23020
 Alpha virt. eigenvalues --    0.01225   0.01225   0.01638   0.02176   0.03545
 Alpha virt. eigenvalues --    0.03862   0.03862   0.03926   0.03926   0.04634
 Alpha virt. eigenvalues --    0.04634   0.04917   0.08772   0.08772   0.09447

 Mulliken charges and spin densities:
               1          2
     1  Sc   0.369002   0.000000
     2  H   -0.369002   0.000000
 Sum of Mulliken charges =   0.00000   0.00000

 Dipole moment (field-independent basis, Debye):
    X=              0.0000    Y=              0.0000    Z=              1.2055  Tot=              1.2055
 Quadrupole moment (field-independent basis, Debye-Ang):
   XX=            -22.9734   YY=            -22.9734   ZZ=            -25.9497
   XY=              0.0000   XZ=              0.0000   YZ=              0.0000

 P ROCCSD(T)=(maxcyc=150, Full)/Gen 5d 7f SCF=(maxcycles=300) Integral(
 PMP2-0=-47.2040404\MP4SDQ=-47.2304362\CCSD=-47.2301137\CCSD(T)=-47.248
 Normal termination of Gaussian 16 at Wed Feb 14 03:27:30 2018.
