 Gaussian 16, Revision A.03,
 Gaussian 16:  ES64L-G16RevA.03 25-Dec-2016

 ----------------------------------------------------------------------
 #P ROCCSD(T)=(MaxCyc=150, Full)/Gen SCF=(maxcycle=400, vshift=200) Pse
 udo=Read Integral(NoXCTest) Pop=Regular MaxDisk=500GB Guess=Read IOp(5
 /15=2)
 ----------------------------------------------------------------------

 ---
 CuH
 ---
 Symbolic Z-matrix:
 Charge =  0 Multiplicity = 1

                         Standard orientation:
 ---------------------------------------------------------------------
 Center     Atomic      Atomic             Coordinates (Angstroms)
 Number     Number       Type             X           Y           Z
 ---------------------------------------------------------------------
      1         29           0        0.000000    0.000000    0.046667
      2          1           0        0.000000    0.000000   -1.353333
 ---------------------------------------------------------------------

 SCF Done:  E(ROHF) =  -195.884756998     A.U. after   17 cycles
 E2 =    -0.1091676873D+01 EUMP2 =    -0.19697643387172D+03
 CCSD(T)
 CCSD(T)= -0.19689399580D+03

 The electronic state is 1-SG.
 Alpha  occ. eigenvalues --   -5.23230  -3.40362  -3.39768  -3.39768  -0.51742
 Alpha  occ. eigenvalues --   -0.50436  -0.50436  -0.50003  -0.50003  -0.34060
 Alpha virt. eigenvalues --    0.00329   0.02957   0.02957   0.03506   0.05624
 Alpha virt. eigenvalues --    0.10031   0.10387   0.10387   0.17233   0.19537
 Alpha virt. eigenvalues --    0.19537   0.20453   0.20453   0.21691   0.25935

 Mulliken charges and spin densities:
               1          2
     1  Cu   0.354218   0.000000
     2  H   -0.354218   0.000000
 Sum of Mulliken charges =  -0.00000   0.00000

 Dipole moment (field-independent basis, Debye):
    X=              0.0000    Y=              0.0000    Z=              3.7685  Tot=              3.7685
 Quadrupole moment (field-independent basis, Debye-Ang):
   XX=            -13.7522   YY=            -13.7522   ZZ=            -15.4932
   XY=              0.0000   XZ=              0.0000   YZ=              0.0000

 P ROCCSD(T)=(MaxCyc=150, Full)/Gen SCF=(maxcycle=400, vshift=200) Pseu
 Normal termination of Gaussian 16 at Sat May  5 21:03:03 2018.
