 Gaussian 16, Revision A.03,
 Gaussian 16:  ES64L-G16RevA.03 25-Dec-2016

 ----------------------------------------------------------------------
 #P ROCCSD(T)=(MaxCyc=150, Full)/Gen SCF=(maxcycle=400, vshift=200) Pse
 udo=Read Integral(NoXCTest) Pop=Regular MaxDisk=500GB Guess=Read IOp(5
 /15=2)
 ----------------------------------------------------------------------

 ---
 CuH
 ---
 Symbolic Z-matrix:
 Charge =  0 Multiplicity = 1

                         Standard orientation:
 ---------------------------------------------------------------------
 Center     Atomic      Atomic             Coordinates (Angstroms)
 Number     Number       Type             X           Y           Z
 ---------------------------------------------------------------------
      1         29           0        0.000000    0.000000    0.046667
      2          1           0        0.000000    0.000000   -1.353333
 ---------------------------------------------------------------------

 SCF Done:  E(ROHF) =  -195.887242893     A.U. after   10 cycles
 E2 =    -0.1168741475D+01 EUMP2 =    -0.19705598436812D+03
 CCSD(T)
 CCSD(T)= -0.19696989599D+03

 The electronic state is 1-SG.
 Alpha  occ. eigenvalues --   -5.23225  -3.40341  -3.39754  -3.39754  -0.51742
 Alpha  occ. eigenvalues --   -0.50443  -0.50443  -0.50014  -0.50014  -0.34065
 Alpha virt. eigenvalues --    0.00227   0.02578   0.02578   0.02899   0.04454
 Alpha virt. eigenvalues --    0.07770   0.08651   0.08651   0.12077   0.12077
 Alpha virt. eigenvalues --    0.12094   0.12528   0.12528   0.15303   0.18665

 Mulliken charges and spin densities:
               1          2
     1  Cu   0.292873   0.000000
     2  H   -0.292873   0.000000
 Sum of Mulliken charges =  -0.00000   0.00000

 Dipole moment (field-independent basis, Debye):
    X=              0.0000    Y=              0.0000    Z=              3.7568  Tot=              3.7568
 Quadrupole moment (field-independent basis, Debye-Ang):
   XX=            -13.7400   YY=            -13.7400   ZZ=            -15.5116
   XY=              0.0000   XZ=              0.0000   YZ=              0.0000

 P ROCCSD(T)=(MaxCyc=150, Full)/Gen SCF=(maxcycle=400, vshift=200) Pseu
 Normal termination of Gaussian 16 at Sun May  6 00:45:20 2018.
