 Gaussian 16, Revision A.03,
 Gaussian 16:  ES64L-G16RevA.03 25-Dec-2016

 ----------------------------------------------------------------------
 #P ROCCSD(T)=(MaxCyc=150, Full)/Gen SCF=(maxcycle=400, vshift=200) Pse
 udo=Read Integral(NoXCTest) Pop=Regular MaxDisk=500GB Guess=Read IOp(5
 /15=2)
 ----------------------------------------------------------------------

 ---
 CuH
 ---
 Symbolic Z-matrix:
 Charge =  0 Multiplicity = 1

                         Standard orientation:
 ---------------------------------------------------------------------
 Center     Atomic      Atomic             Coordinates (Angstroms)
 Number     Number       Type             X           Y           Z
 ---------------------------------------------------------------------
      1         29           0        0.000000    0.000000    0.046667
      2          1           0        0.000000    0.000000   -1.353333
 ---------------------------------------------------------------------

 SCF Done:  E(ROHF) =  -195.886992306     A.U. after   10 cycles
 E2 =    -0.1143678583D+01 EUMP2 =    -0.19703067088955D+03
 CCSD(T)
 CCSD(T)= -0.19694680326D+03

 The electronic state is 1-SG.
 Alpha  occ. eigenvalues --   -5.23225  -3.40343  -3.39755  -3.39755  -0.51742
 Alpha  occ. eigenvalues --   -0.50441  -0.50441  -0.50013  -0.50013  -0.34064
 Alpha virt. eigenvalues --    0.00307   0.02664   0.02664   0.03174   0.05239
 Alpha virt. eigenvalues --    0.09000   0.09019   0.09019   0.13473   0.13489
 Alpha virt. eigenvalues --    0.13489   0.13952   0.13952   0.20166   0.22361

 Mulliken charges and spin densities:
               1          2
     1  Cu   0.334256   0.000000
     2  H   -0.334256   0.000000
 Sum of Mulliken charges =  -0.00000   0.00000

 Dipole moment (field-independent basis, Debye):
    X=              0.0000    Y=              0.0000    Z=              3.7585  Tot=              3.7585
 Quadrupole moment (field-independent basis, Debye-Ang):
   XX=            -13.7416   YY=            -13.7416   ZZ=            -15.5088
   XY=              0.0000   XZ=              0.0000   YZ=              0.0000

 P ROCCSD(T)=(MaxCyc=150, Full)/Gen SCF=(maxcycle=400, vshift=200) Pseu
 Normal termination of Gaussian 16 at Sat May  5 21:57:39 2018.
