 Gaussian 16, Revision A.03,
 Gaussian 16:  ES64L-G16RevA.03 25-Dec-2016

 ----------------------------------------------------------------------
 #P ROCCSD(T)=(MaxCyc=150, Full)/Gen SCF=(maxcycle=400, vshift=200) Pse
 udo=Read Integral(NoXCTest) Pop=Regular MaxDisk=500GB Guess=Read IOp(5
 /15=2)
 ----------------------------------------------------------------------

 ---
 CuO
 ---
 Symbolic Z-matrix:
 Charge =  0 Multiplicity = 2

                         Standard orientation:
 ---------------------------------------------------------------------
 Center     Atomic      Atomic             Coordinates (Angstroms)
 Number     Number       Type             X           Y           Z
 ---------------------------------------------------------------------
      1         29           0        0.000000    0.000000    0.302703
      2          8           0        0.000000    0.000000   -1.097297
 ---------------------------------------------------------------------

 SCF Done:  E(ROHF) =  -210.930368530     A.U. after   20 cycles
 E2 =    -0.1391253562D+01 EUMP2 =    -0.21232162209178D+03
 CCSD(T)
 CCSD(T)= -0.21224521291D+03

 Unable to determine electronic state:  an orbital has unidentified symmetry.
 Alpha  occ. eigenvalues --   -5.32653  -3.51190  -3.48585  -3.47534  -1.31911
 Alpha  occ. eigenvalues --   -0.70026  -0.66488  -0.62825  -0.57539  -0.57534
 Alpha  occ. eigenvalues --   -0.48793  -0.43418  -0.37011
 Alpha virt. eigenvalues --   -0.00151   0.02709   0.02845   0.03565   0.04931
 Alpha virt. eigenvalues --    0.09323   0.09703   0.12131   0.13738   0.13752
 Alpha virt. eigenvalues --    0.14098   0.14238   0.14491   0.19154   0.21828

 Mulliken charges and spin densities:
               1          2
     1  Cu   0.669182   0.093752
     2  O   -0.669182   0.906248
 Sum of Mulliken charges =  -0.00000   1.00000

 Dipole moment (field-independent basis, Debye):
    X=              0.0000    Y=              0.0000    Z=              4.3595  Tot=              4.3595
 Quadrupole moment (field-independent basis, Debye-Ang):
   XX=            -16.6450   YY=            -18.1129   ZZ=            -18.4360
   XY=              0.0000   XZ=              0.0000   YZ=              0.0000

 \\#P ROCCSD(T)=(MaxCyc=150, Full)/Gen SCF=(maxcycle=400, vshift=200) P
 \PMP2-0=-212.3216221\MP4SDQ=-212.2742103\CCSD=-212.1907874\CCSD(T)=-21
 Normal termination of Gaussian 16 at Sun May  6 00:08:23 2018.
