 Gaussian 16, Revision A.03,
 Gaussian 16:  ES64L-G16RevA.03 25-Dec-2016

 ----------------------------------------------------------------------
 #P ROCCSD(T)=(MaxCyc=150, Full)/Gen SCF=(maxcycle=400, vshift=200) Pse
 udo=Read Integral(NoXCTest) Pop=Regular MaxDisk=500GB Guess=Read IOp(5
 /15=2)
 ----------------------------------------------------------------------

 ---
 CuO
 ---
 Symbolic Z-matrix:
 Charge =  0 Multiplicity = 2

                         Standard orientation:
 ---------------------------------------------------------------------
 Center     Atomic      Atomic             Coordinates (Angstroms)
 Number     Number       Type             X           Y           Z
 ---------------------------------------------------------------------
      1         29           0        0.000000    0.000000    0.302703
      2          8           0        0.000000    0.000000   -1.097297
 ---------------------------------------------------------------------

 SCF Done:  E(ROHF) =  -210.926066326     A.U. after   37 cycles
 E2 =    -0.1326976001D+01 EUMP2 =    -0.21225304232691D+03
 CCSD(T)
 CCSD(T)= -0.21217936226D+03

 Unable to determine electronic state:  an orbital has unidentified symmetry.
 Alpha  occ. eigenvalues --   -5.32665  -3.51222  -3.48607  -3.47551  -1.31968
 Alpha  occ. eigenvalues --   -0.70021  -0.66481  -0.62840  -0.57536  -0.57531
 Alpha  occ. eigenvalues --   -0.48792  -0.43417  -0.37028
 Alpha virt. eigenvalues --   -0.00129   0.03059   0.03230   0.03950   0.05268
 Alpha virt. eigenvalues --    0.10827   0.11311   0.13679   0.19294   0.19989
 Alpha virt. eigenvalues --    0.20009   0.21262   0.21671   0.22165   0.26025

 Mulliken charges and spin densities:
               1          2
     1  Cu   0.870427   0.086038
     2  O   -0.870427   0.913962
 Sum of Mulliken charges =  -0.00000   1.00000

 Dipole moment (field-independent basis, Debye):
    X=              0.0000    Y=              0.0000    Z=              4.3732  Tot=              4.3732
 Quadrupole moment (field-independent basis, Debye-Ang):
   XX=            -16.6538   YY=            -18.1376   ZZ=            -18.4271
   XY=              0.0000   XZ=              0.0000   YZ=              0.0000

 \\#P ROCCSD(T)=(MaxCyc=150, Full)/Gen SCF=(maxcycle=400, vshift=200) P
 \PMP2-0=-212.2530423\MP4SDQ=-212.2120401\CCSD=-212.1276072\CCSD(T)=-21
 Normal termination of Gaussian 16 at Sat May  5 21:35:23 2018.
