 Gaussian 16, Revision A.03,
 Gaussian 16:  ES64L-G16RevA.03 25-Dec-2016

 ----------------------------------------------------------------------
 #P ROCCSD(T)=(maxcyc=150, Full)/Gen 5d 7f SCF=(maxcycles=300) Integral
 (NoXCTest, DKHSO) MaxDisk=500GB Pop=Regular IOp(5/15=2) Guess=Read
 ----------------------------------------------------------------------

 ---
 CrH
 ---
 Symbolic Z-matrix:
 Charge =  0 Multiplicity = 6

                         Standard orientation:
 ---------------------------------------------------------------------
 Center     Atomic      Atomic             Coordinates (Angstroms)
 Number     Number       Type             X           Y           Z
 ---------------------------------------------------------------------
      1         24           0        0.000000    0.000000    0.072000
      2          1           0        0.000000    0.000000   -1.728000
 ---------------------------------------------------------------------

 SCF Done:  E(ROHF) =  -1050.20339284     A.U. after   26 cycles
 E2 =    -0.9094487834D+00 EUMP2 =    -0.10511128416196D+04
 CCSD(T)
 CCSD(T)= -0.10511027568D+04

 The electronic state is 6-SG.
 Alpha  occ. eigenvalues -- -222.21545 -26.80849 -22.44252 -22.44252 -22.44239
 Alpha  occ. eigenvalues --   -3.68087  -2.43548  -2.43548  -2.39368  -0.55654
 Alpha  occ. eigenvalues --   -0.55654  -0.52370  -0.52370  -0.39721  -0.26265
 Alpha virt. eigenvalues --    0.01213   0.01213   0.02289   0.02575   0.05440
 Alpha virt. eigenvalues --    0.05440   0.05695   0.07570   0.07570   0.08026
 Alpha virt. eigenvalues --    0.08026   0.08972   0.10422   0.17468   0.20832

 Mulliken charges and spin densities:
               1          2
     1  Cr   0.414883   4.980789
     2  H   -0.414883   0.019211
 Sum of Mulliken charges =  -0.00000   5.00000

 Dipole moment (field-independent basis, Debye):
    X=              0.0000    Y=              0.0000    Z=              2.3692  Tot=              2.3692
 Quadrupole moment (field-independent basis, Debye-Ang):
   XX=            -17.4010   YY=            -17.4010   ZZ=            -25.4933
   XY=              0.0000   XZ=              0.0000   YZ=              0.0000

 \\#P ROCCSD(T)=(maxcyc=150, Full)/Gen 5d 7f SCF=(maxcycles=300) Integr
 Normal termination of Gaussian 16 at Tue Feb 13 18:01:49 2018.
