 Gaussian 16, Revision A.03,
 Gaussian 16:  ES64L-G16RevA.03 25-Dec-2016

 ----------------------------------------------------------------------
 #P ROCCSD(T)=(maxcyc=150, Window=(7,0), SaveAmplitudes, ReadAmplitudes
 )/Gen 5d 7f SCF=(maxcycles=300) Integral(NoXCTest, DKHSO) MaxDisk=500G
 B Pop=Regular Guess=Read IOp(5/15=2)
 ----------------------------------------------------------------------

 ---
 TiO
 ---
 Symbolic Z-matrix:
 Charge =  0 Multiplicity = 3

                         Standard orientation:
 ---------------------------------------------------------------------
 Center     Atomic      Atomic             Coordinates (Angstroms)
 Number     Number       Type             X           Y           Z
 ---------------------------------------------------------------------
      1         22           0        0.000000    0.000000    0.400000
      2          8           0        0.000000    0.000000   -1.100000
 ---------------------------------------------------------------------

 SCF Done:  E(ROHF) =  -927.700653537     A.U. after   21 cycles
 E2 =    -0.7188608250D+00 EUMP2 =    -0.92841951436182D+03
 CCSD(T)
 CCSD(T)= -0.92844252705D+03

 Unable to determine electronic state:  an orbital has unidentified symmetry.
 Alpha  occ. eigenvalues -- -184.41258 -21.67833 -20.51969 -17.84469 -17.84469
 Alpha  occ. eigenvalues --  -17.84376  -2.95798  -1.89099  -1.86530  -1.86530
 Alpha  occ. eigenvalues --   -1.15678  -0.48875  -0.48875  -0.48486  -0.41893
 Alpha  occ. eigenvalues --   -0.24904
 Alpha virt. eigenvalues --    0.00736   0.00736   0.01909   0.02585   0.04400
 Alpha virt. eigenvalues --    0.04400   0.04955   0.05042   0.05234   0.05845
 Alpha virt. eigenvalues --    0.05845   0.07468   0.11377   0.11959   0.14134

 Mulliken charges and spin densities:
               1          2
     1  Ti   0.873212   2.011110
     2  O   -0.873212  -0.011110
 Sum of Mulliken charges =  -0.00000   2.00000

 Dipole moment (field-independent basis, Debye):
    X=              0.0000    Y=              0.0000    Z=              3.1049  Tot=              3.1049
 Quadrupole moment (field-independent basis, Debye-Ang):
   XX=            -21.9645   YY=            -21.9645   ZZ=            -28.8651
   XY=             -0.0000   XZ=              0.0000   YZ=              0.0000

 1\1\GINC-C477-054\SP\ROCCSD(T)-RW\Gen\O1Ti1(3)\AANNABE\14-Mar-2018\0\\
 #P ROCCSD(T)=(maxcyc=150, Window=(7,0), SaveAmplitudes, ReadAmplitudes
 )/Gen 5d 7f SCF=(maxcycles=300) Integral(NoXCTest, DKHSO) MaxDisk=500G
 B Pop=Regular Guess=Read IOp(5/15=2)\\TiO\\0,3\Ti,0,0.,0.,0.\O,0,0.,0.
 ,1.5\\Version=ES64L-G16RevA.03\HF=-927.7006535\MP2=-928.4195144\MP3=-9
 28.3821928\PUHF=-927.7006535\PMP2-0=-928.4195144\MP4SDQ=-928.423554\CC
 SD=-928.4032193\CCSD(T)=-928.442527\RMSD=5.251e-09\PG=C*V [C*(O1Ti1)]\
 \@

 Normal termination of Gaussian 16 at Wed Mar 14 14:18:49 2018.
