 Gaussian 16, Revision A.03,
 Gaussian 16:  ES64L-G16RevA.03 25-Dec-2016

 ----------------------------------------------------------------------
 #P ROCCSD(T)=(maxcyc=150, Full)/Gen 5d 7f SCF=(maxcycles=300) Integral
 (NoXCTest) MaxDisk=500GB Pop=Regular Pseudo=Read Guess=Read
 ----------------------------------------------------------------------

 ---
 CrH
 ---
 Symbolic Z-matrix:
 Charge =  0 Multiplicity = 6

                         Standard orientation:
 ---------------------------------------------------------------------
 Center     Atomic      Atomic             Coordinates (Angstroms)
 Number     Number       Type             X           Y           Z
 ---------------------------------------------------------------------
      1         24           0        0.000000    0.000000    0.044000
      2          1           0        0.000000    0.000000   -1.056000
 ---------------------------------------------------------------------

 SCF Done:  E(ROHF) =  -86.5350120363     A.U. after   34 cycles
 E2 =    -0.6205265731D+00 EUMP2 =    -0.87155538609404D+02
 CCSD(T)
 CCSD(T)= -0.87170367098D+02

 The electronic state is 6-SG.
 Alpha  occ. eigenvalues --   -3.61752  -2.37168  -2.36665  -2.36665  -0.48200
 Alpha  occ. eigenvalues --   -0.43627  -0.43627  -0.40750  -0.40750  -0.24998
 Alpha virt. eigenvalues --    0.01553   0.01764   0.01764   0.02287   0.04713
 Alpha virt. eigenvalues --    0.05508   0.05508   0.05529   0.05529   0.05924
 Alpha virt. eigenvalues --    0.05941   0.05941   0.09361   0.13497   0.16856

 Mulliken charges and spin densities:
               1          2
     1  Cr   0.280506   4.988897
     2  H   -0.280506   0.011103
 Sum of Mulliken charges =  -0.00000   5.00000

 Dipole moment (field-independent basis, Debye):
    X=              0.0000    Y=              0.0000    Z=              2.1126  Tot=              2.1126
 Quadrupole moment (field-independent basis, Debye-Ang):
   XX=            -16.5115   YY=            -16.5115   ZZ=            -17.9324
   XY=              0.0000   XZ=              0.0000   YZ=              0.0000

 \\#P ROCCSD(T)=(maxcyc=150, Full)/Gen 5d 7f SCF=(maxcycles=300) Integr
 1555386\MP4SDQ=-87.1489443\CCSD=-87.1485049\CCSD(T)=-87.1703671\RMSD=3
 Normal termination of Gaussian 16 at Mon Feb 12 18:15:47 2018.
