 Gaussian 16, Revision A.03,
 Gaussian 16:  ES64L-G16RevA.03 25-Dec-2016

 ----------------------------------------------------------------------
 #P ROCCSD(T)=(maxcyc=150, Full)/Gen 5d 7f SCF=(maxcycles=200,NoVarAcc,
  VShift=300) MaxDisk=100GB Pop=Regular Pseudo=Read Guess=Read IOp(5/15
 =2)
 ----------------------------------------------------------------------

 --
 Cr
 --
 Symbolic Z-matrix:
 Charge =  0 Multiplicity = 7

                         Standard orientation:
 ---------------------------------------------------------------------
 Center     Atomic      Atomic             Coordinates (Angstroms)
 Number     Number       Type             X           Y           Z
 ---------------------------------------------------------------------
      1         24           0        0.000000    0.000000    0.000000
 ---------------------------------------------------------------------

 SCF Done:  E(ROHF) =  -86.1289313874     A.U. after   27 cycles
 E2 =    -0.5613560162D+00 EUMP2 =    -0.86690287403655D+02
 CCSD(T)
 CCSD(T)= -0.86699490117D+02

 The electronic state is 7-A1G.
 Alpha  occ. eigenvalues --   -3.57471  -2.32329  -2.32329  -2.32329  -0.36885
 Alpha  occ. eigenvalues --   -0.36885  -0.36885  -0.36885  -0.36885  -0.22623
 Alpha virt. eigenvalues --    0.01681   0.01681   0.01681   0.02262   0.05110
 Alpha virt. eigenvalues --    0.05110   0.05110   0.05110   0.05110   0.05698
 Alpha virt. eigenvalues --    0.05698   0.05698   0.11294   0.16242   0.16242

 Mulliken charges and spin densities:
               1          2
     1  Cr  -0.000000   6.000000
 Sum of Mulliken charges =  -0.00000   6.00000

 Dipole moment (field-independent basis, Debye):
    X=              0.0000    Y=              0.0000    Z=              0.0000  Tot=              0.0000
 Quadrupole moment (field-independent basis, Debye-Ang):
   XX=            -16.4459   YY=            -16.4459   ZZ=            -16.4459
   XY=             -0.0000   XZ=             -0.0000   YZ=              0.0000

 1\1\GINC-C506-012\SP\ROCCSD(T)-Full\Gen\Cr1(7)\AANNABE\16-Mar-2018\0\\
 #P ROCCSD(T)=(maxcyc=150, Full)/Gen 5d 7f SCF=(maxcycles=200,NoVarAcc,
  VShift=300) MaxDisk=100GB Pop=Regular Pseudo=Read Guess=Read IOp(5/15
 =2)\\Cr\\0,7\Cr,0,0.,0.,0.\\Version=ES64L-G16RevA.03\State=7-A1G\HF=-8
 6.1289314\MP2=-86.6902874\MP3=-86.680394\PUHF=-86.1289314\PMP2-0=-86.6
 902874\MP4SDQ=-86.683029\CCSD=-86.6822012\CCSD(T)=-86.6994901\RMSD=2.9
 50e-09\PG=OH [O(Cr1)]\\@

 Normal termination of Gaussian 16 at Fri Mar 16 16:23:19 2018.
