 Gaussian 16, Revision A.03,
 Gaussian 16:  ES64L-G16RevA.03 25-Dec-2016

 ----------------------------------------------------------------------
 #P ROCCSD(T)=(maxcyc=150, Full, SaveAmplitudes, ReadAmplitudes)/Gen 5d
  7f SCF=(maxcycles=300) Integral(NoXCTest) MaxDisk=500GB Pop=Regular P
 seudo=Read Guess=Read IOp(5/15=2)
 ----------------------------------------------------------------------

 ---
 MnO
 ---
 Symbolic Z-matrix:
 Charge =  0 Multiplicity = 6

                         Standard orientation:
 ---------------------------------------------------------------------
 Center     Atomic      Atomic             Coordinates (Angstroms)
 Number     Number       Type             X           Y           Z
 ---------------------------------------------------------------------
      1         25           0        0.000000    0.000000    0.436364
      2          8           0        0.000000    0.000000   -1.363636
 ---------------------------------------------------------------------

 SCF Done:  E(ROHF) =  -119.371458866     A.U. after   33 cycles
 E2 =    -0.9092565557D+00 EUMP2 =    -0.12028071542138D+03
 CCSD(T)
 CCSD(T)= -0.12030978020D+03

 The electronic state is 6-SG.
 Alpha  occ. eigenvalues --   -4.10243  -2.76588  -2.76588  -2.76154  -1.08756
 Alpha  occ. eigenvalues --   -0.64965  -0.64965  -0.64716  -0.64716  -0.61653
 Alpha  occ. eigenvalues --   -0.33582  -0.33582  -0.33303
 Alpha virt. eigenvalues --   -0.05404   0.01377   0.01377   0.01597   0.03828
 Alpha virt. eigenvalues --    0.06398   0.06398   0.08179   0.08354   0.08354
 Alpha virt. eigenvalues --    0.09455   0.09455   0.12786   0.14030   0.22490

 Mulliken charges and spin densities:
               1          2
     1  Mn   1.132588   4.932914
     2  O   -1.132588   0.067086
 Sum of Mulliken charges =   0.00000   5.00000

 Dipole moment (field-independent basis, Debye):
    X=              0.0000    Y=              0.0000    Z=              9.5292  Tot=              9.5292
 Quadrupole moment (field-independent basis, Debye-Ang):
   XX=            -18.9533   YY=            -18.9533   ZZ=            -24.4576
   XY=              0.0000   XZ=              0.0000   YZ=              0.0000

 \\#P ROCCSD(T)=(maxcyc=150, Full, SaveAmplitudes, ReadAmplitudes)/Gen
 .2793795\CCSD=-120.2684117\CCSD(T)=-120.3097802\RMSD=5.778e-09\PG=C*V
 Normal termination of Gaussian 16 at Tue Mar 13 12:38:16 2018.
