 Gaussian 16, Revision A.03,
 Gaussian 16:  ES64L-G16RevA.03 25-Dec-2016

 ----------------------------------------------------------------------
 #P ROCCSD(T)=(MaxCyc=150, Full)/Gen SCF=(maxcycle=400) Pseudo=Read Int
 egral(NoXCTest) Pop=Regular MaxDisk=500GB Guess=Read IOp(5/15=2)
 ----------------------------------------------------------------------

 --
 Ni
 --
 Symbolic Z-matrix:
 Charge =  0 Multiplicity = 3

                         Standard orientation:
 ---------------------------------------------------------------------
 Center     Atomic      Atomic             Coordinates (Angstroms)
 Number     Number       Type             X           Y           Z
 ---------------------------------------------------------------------
      1         28           0        0.000000    0.000000    0.000000
 ---------------------------------------------------------------------

 SCF Done:  E(ROHF) =  -168.398154587     A.U. after   14 cycles
 E2 =    -0.8760361556D+00 EUMP2 =    -0.16927419074211D+03
 CCSD(T)
 CCSD(T)= -0.16926654975D+03

 Unable to determine electronic state:  an orbital has unidentified symmetry.
 Alpha  occ. eigenvalues --   -5.16614  -3.48182  -3.39759  -3.39759  -0.76945
 Alpha  occ. eigenvalues --   -0.76945  -0.73093  -0.68322  -0.68322  -0.28801
 Alpha virt. eigenvalues --    0.02117   0.02253   0.02253   0.02991   0.06779
 Alpha virt. eigenvalues --    0.07148   0.07148   0.08331   0.08331   0.08332
 Alpha virt. eigenvalues --    0.08365   0.08365   0.16071   0.22727   0.23328

 Mulliken charges and spin densities:
               1          2
     1  Ni   0.000000   2.000000
 Sum of Mulliken charges =   0.00000   2.00000

 Dipole moment (field-independent basis, Debye):
    X=              0.0000    Y=              0.0000    Z=              0.0000  Tot=              0.0000
 Quadrupole moment (field-independent basis, Debye-Ang):
   XX=            -16.6105   YY=            -16.3628   ZZ=            -16.6105
   XY=             -0.0000   XZ=              0.0000   YZ=              0.0000

 1\1\GINC-C423-061\SP\ROCCSD(T)-Full\Gen\Ni1(3)\GWANG18\11-May-2018\0\\
 #P ROCCSD(T)=(MaxCyc=150, Full)/Gen SCF=(maxcycle=400) Pseudo=Read Int
 egral(NoXCTest) Pop=Regular MaxDisk=500GB Guess=Read IOp(5/15=2)\\Ni\\
 0,3\Ni,0,0.,0.,0.\\Version=ES64L-G16RevA.03\HF=-168.3981546\MP2=-169.2
 741907\MP3=-169.2170144\PUHF=-168.3981546\PMP2-0=-169.2741907\MP4SDQ=-
 169.2484333\CCSD=-169.2391353\CCSD(T)=-169.2665498\RMSD=2.439e-09\PG=O
 H [O(Ni1)]\\@

 Normal termination of Gaussian 16 at Fri May 11 03:49:43 2018.
