 Gaussian 16, Revision A.03,
 Gaussian 16:  ES64L-G16RevA.03 25-Dec-2016

 ----------------------------------------------------------------------
 #P ROCCSD(T)=(MaxCyc=150, Full)/Gen SCF=(maxcycle=400) Pseudo=Read Int
 egral(NoXCTest) Pop=Regular MaxDisk=500GB Guess=Read IOp(5/15=2)
 ----------------------------------------------------------------------

 --
 Ni
 --
 Symbolic Z-matrix:
 Charge =  0 Multiplicity = 3

                         Standard orientation:
 ---------------------------------------------------------------------
 Center     Atomic      Atomic             Coordinates (Angstroms)
 Number     Number       Type             X           Y           Z
 ---------------------------------------------------------------------
      1         28           0        0.000000    0.000000    0.000000
 ---------------------------------------------------------------------

 SCF Done:  E(ROHF) =  -169.061847333     A.U. after   14 cycles
 E2 =    -0.8869734283D+00 EUMP2 =    -0.16994882076107D+03
 CCSD(T)
 CCSD(T)= -0.16994039870D+03

 Unable to determine electronic state:  an orbital has unidentified symmetry.
 Alpha  occ. eigenvalues --   -5.20152  -3.48770  -3.40337  -3.40337  -0.77043
 Alpha  occ. eigenvalues --   -0.77043  -0.73182  -0.68395  -0.68395  -0.28815
 Alpha virt. eigenvalues --    0.02104   0.02243   0.02243   0.02990   0.06733
 Alpha virt. eigenvalues --    0.07106   0.07106   0.08331   0.08331   0.08332
 Alpha virt. eigenvalues --    0.08365   0.08365   0.16066   0.22609   0.23214

 Mulliken charges and spin densities:
               1          2
     1  Ni  -0.000000   2.000000
 Sum of Mulliken charges =  -0.00000   2.00000

 Dipole moment (field-independent basis, Debye):
    X=              0.0000    Y=              0.0000    Z=              0.0000  Tot=              0.0000
 Quadrupole moment (field-independent basis, Debye-Ang):
   XX=            -16.5591   YY=            -16.3115   ZZ=            -16.5591
   XY=             -0.0000   XZ=              0.0000   YZ=              0.0000

 1\1\GINC-C470-121\SP\ROCCSD(T)-Full\Gen\Ni1(3)\GWANG18\27-Mar-2018\0\\
 #P ROCCSD(T)=(MaxCyc=150, Full)/Gen SCF=(maxcycle=400) Pseudo=Read Int
 egral(NoXCTest) Pop=Regular MaxDisk=500GB Guess=Read IOp(5/15=2)\\Ni\\
 0,3\Ni,0,0.,0.,0.\\Version=ES64L-G16RevA.03\HF=-169.0618473\MP2=-169.9
 488208\MP3=-169.8897731\PUHF=-169.0618473\PMP2-0=-169.9488208\MP4SDQ=-
 169.9222904\CCSD=-169.9125685\CCSD(T)=-169.9403987\RMSD=2.674e-09\PG=O
 H [O(Ni1)]\\@

 Normal termination of Gaussian 16 at Tue Mar 27 23:45:58 2018.
