 Gaussian 16, Revision A.03,
 Gaussian 16:  ES64L-G16RevA.03 25-Dec-2016

 ----------------------------------------------------------------------
 #P ROCCSD(T)=(MaxCyc=150, Full)/Gen SCF=(maxcycle=400) Pseudo=Read Int
 egral(NoXCTest) Pop=Regular MaxDisk=500GB Guess=Read IOp(5/15=2)
 ----------------------------------------------------------------------

 --
 Ni
 --
 Symbolic Z-matrix:
 Charge =  0 Multiplicity = 3

                         Standard orientation:
 ---------------------------------------------------------------------
 Center     Atomic      Atomic             Coordinates (Angstroms)
 Number     Number       Type             X           Y           Z
 ---------------------------------------------------------------------
      1         28           0        0.000000    0.000000    0.000000
 ---------------------------------------------------------------------

 SCF Done:  E(ROHF) =  -168.396448306     A.U. after    9 cycles
 E2 =    -0.8328416332D+00 EUMP2 =    -0.16922928993953D+03
 CCSD(T)
 CCSD(T)= -0.16922289135D+03

 Unable to determine electronic state:  an orbital has unidentified symmetry.
 Alpha  occ. eigenvalues --   -5.16615  -3.48194  -3.39770  -3.39770  -0.76942
 Alpha  occ. eigenvalues --   -0.76942  -0.73086  -0.68317  -0.68317  -0.28805
 Alpha virt. eigenvalues --    0.02259   0.02417   0.02417   0.03101   0.07706
 Alpha virt. eigenvalues --    0.08120   0.08120   0.12670   0.12670   0.12680
 Alpha virt. eigenvalues --    0.12758   0.12758   0.16529   0.28420   0.29173

 Mulliken charges and spin densities:
               1          2
     1  Ni  -0.000000   2.000000
 Sum of Mulliken charges =  -0.00000   2.00000

 Dipole moment (field-independent basis, Debye):
    X=              0.0000    Y=              0.0000    Z=              0.0000  Tot=              0.0000
 Quadrupole moment (field-independent basis, Debye-Ang):
   XX=            -16.6134   YY=            -16.3624   ZZ=            -16.6134
   XY=             -0.0000   XZ=             -0.0000   YZ=              0.0000

 1\1\GINC-C423-061\SP\ROCCSD(T)-Full\Gen\Ni1(3)\GWANG18\11-May-2018\0\\
 #P ROCCSD(T)=(MaxCyc=150, Full)/Gen SCF=(maxcycle=400) Pseudo=Read Int
 egral(NoXCTest) Pop=Regular MaxDisk=500GB Guess=Read IOp(5/15=2)\\Ni\\
 0,3\Ni,0,0.,0.,0.\\Version=ES64L-G16RevA.03\HF=-168.3964483\MP2=-169.2
 292899\MP3=-169.1737875\PUHF=-168.3964483\PMP2-0=-169.2292899\MP4SDQ=-
 169.2064348\CCSD=-169.1969275\CCSD(T)=-169.2228913\RMSD=6.734e-09\PG=O
 H [O(Ni1)]\\@

 Normal termination of Gaussian 16 at Fri May 11 03:25:19 2018.
