 Gaussian 16, Revision A.03,
 Gaussian 16:  ES64L-G16RevA.03 25-Dec-2016

 ----------------------------------------------------------------------
 #P ROCCSD(T)=(MaxCyc=150, Full)/Gen SCF=(maxcycle=400) Pseudo=Read Int
 egral(NoXCTest) Pop=Regular MaxDisk=500GB Guess=Read IOp(5/15=2)
 ----------------------------------------------------------------------

 --
 Ni
 --
 Symbolic Z-matrix:
 Charge =  0 Multiplicity = 3

                         Standard orientation:
 ---------------------------------------------------------------------
 Center     Atomic      Atomic             Coordinates (Angstroms)
 Number     Number       Type             X           Y           Z
 ---------------------------------------------------------------------
      1         28           0        0.000000    0.000000    0.000000
 ---------------------------------------------------------------------

 SCF Done:  E(ROHF) =  -169.060070020     A.U. after   13 cycles
 E2 =    -0.8438305633D+00 EUMP2 =    -0.16990390058309D+03
 CCSD(T)
 CCSD(T)= -0.16989679227D+03

 Unable to determine electronic state:  an orbital has unidentified symmetry.
 Alpha  occ. eigenvalues --   -5.20152  -3.48788  -3.40354  -3.40354  -0.77041
 Alpha  occ. eigenvalues --   -0.77041  -0.73176  -0.68391  -0.68391  -0.28819
 Alpha virt. eigenvalues --    0.02243   0.02405   0.02405   0.03100   0.07652
 Alpha virt. eigenvalues --    0.08070   0.08070   0.12671   0.12671   0.12681
 Alpha virt. eigenvalues --    0.12759   0.12759   0.16524   0.28258   0.29015

 Mulliken charges and spin densities:
               1          2
     1  Ni  -0.000000   2.000000
 Sum of Mulliken charges =  -0.00000   2.00000

 Dipole moment (field-independent basis, Debye):
    X=              0.0000    Y=              0.0000    Z=              0.0000  Tot=              0.0000
 Quadrupole moment (field-independent basis, Debye-Ang):
   XX=            -16.5620   YY=            -16.3111   ZZ=            -16.5620
   XY=             -0.0000   XZ=             -0.0000   YZ=              0.0000

 1\1\GINC-C470-121\SP\ROCCSD(T)-Full\Gen\Ni1(3)\GWANG18\27-Mar-2018\0\\
 #P ROCCSD(T)=(MaxCyc=150, Full)/Gen SCF=(maxcycle=400) Pseudo=Read Int
 egral(NoXCTest) Pop=Regular MaxDisk=500GB Guess=Read IOp(5/15=2)\\Ni\\
 0,3\Ni,0,0.,0.,0.\\Version=ES64L-G16RevA.03\HF=-169.06007\MP2=-169.903
 9006\MP3=-169.8465982\PUHF=-169.06007\PMP2-0=-169.9039006\MP4SDQ=-169.
 880356\CCSD=-169.8704216\CCSD(T)=-169.8967923\RMSD=6.876e-09\PG=OH [O(
 Ni1)]\\@

 Normal termination of Gaussian 16 at Tue Mar 27 23:21:27 2018.
