 Gaussian 16, Revision A.03,
 Gaussian 16:  ES64L-G16RevA.03 25-Dec-2016

 ----------------------------------------------------------------------
 #P ROCCSD(T)=(maxcyc=150, Full, SaveAmplitudes, ReadAmplitudes)/Gen 5d
  7f SCF=(maxcycles=300) Integral(NoXCTest) MaxDisk=500GB Pop=Regular P
 seudo=Read Guess=Read IOp(5/15=2)
 ----------------------------------------------------------------------

 ---
 ScO
 ---
 Symbolic Z-matrix:
 Charge =  0 Multiplicity = 2

                         Standard orientation:
 ---------------------------------------------------------------------
 Center     Atomic      Atomic             Coordinates (Angstroms)
 Number     Number       Type             X           Y           Z
 ---------------------------------------------------------------------
      1         21           0        0.000000    0.000000    0.441379
      2          8           0        0.000000    0.000000   -1.158621
 ---------------------------------------------------------------------

 SCF Done:  E(ROHF) =  -62.0741174466     A.U. after   17 cycles
 E2 =    -0.6884389115D+00 EUMP2 =    -0.62762556358040D+02
 CCSD(T)
 CCSD(T)= -0.62790265793D+02

 The electronic state is 2-SG.
 Alpha  occ. eigenvalues --   -2.69002  -1.65805  -1.60103  -1.60103  -1.10925
 Alpha  occ. eigenvalues --   -0.44046  -0.44046  -0.43710  -0.24022
 Alpha virt. eigenvalues --    0.00294   0.00294   0.01698   0.02284   0.03647
 Alpha virt. eigenvalues --    0.03647   0.03741   0.03741   0.04197   0.04197
 Alpha virt. eigenvalues --    0.04264   0.06018   0.09027   0.09027   0.10743

 Mulliken charges and spin densities:
               1          2
     1  Sc   1.293108   0.975013
     2  O   -1.293108   0.024987
 Sum of Mulliken charges =  -0.00000   1.00000

 Dipole moment (field-independent basis, Debye):
    X=              0.0000    Y=              0.0000    Z=              3.8807  Tot=              3.8807
 Quadrupole moment (field-independent basis, Debye-Ang):
   XX=            -21.8379   YY=            -21.8379   ZZ=            -31.8624
   XY=              0.0000   XZ=              0.0000   YZ=              0.0000

 \\#P ROCCSD(T)=(maxcyc=150, Full, SaveAmplitudes, ReadAmplitudes)/Gen
 66\CCSD=-62.7523859\CCSD(T)=-62.7902658\RMSD=6.086e-09\PG=C*V [C*(O1Sc
 Normal termination of Gaussian 16 at Wed Feb 28 18:59:03 2018.
