 Gaussian 16, Revision A.03,
 Gaussian 16:  ES64L-G16RevA.03 25-Dec-2016

 ----------------------------------------------------------------------
 #P ROCCSD(T)=(maxcyc=150, Full, SaveAmplitudes, ReadAmplitudes)/Gen 5d
  7f SCF=(maxcycles=300) Integral(NoXCTest) MaxDisk=500GB Pop=Regular P
 seudo=Read Guess=Read IOp(5/15=2)
 ----------------------------------------------------------------------

 ---
 TiO
 ---
 Symbolic Z-matrix:
 Charge =  0 Multiplicity = 3

                         Standard orientation:
 ---------------------------------------------------------------------
 Center     Atomic      Atomic             Coordinates (Angstroms)
 Number     Number       Type             X           Y           Z
 ---------------------------------------------------------------------
      1         22           0        0.000000    0.000000    0.506667
      2          8           0        0.000000    0.000000   -1.393333
 ---------------------------------------------------------------------

 SCF Done:  E(ROHF) =  -73.2140461973     A.U. after   22 cycles
 E2 =    -0.7566207808D+00 EUMP2 =    -0.73970666978138D+02
 CCSD(T)
 CCSD(T)= -0.74007798379D+02

 Unable to determine electronic state:  an orbital has unidentified symmetry.
 Alpha  occ. eigenvalues --   -3.07235  -1.98104  -1.98104  -1.93525  -1.11486
 Alpha  occ. eigenvalues --   -0.52358  -0.41414  -0.37438  -0.37438  -0.29760
 Alpha virt. eigenvalues --   -0.00943  -0.00943   0.00016   0.01968   0.03327
 Alpha virt. eigenvalues --    0.03327   0.03716   0.04450   0.05029   0.05950
 Alpha virt. eigenvalues --    0.05950   0.06102   0.07462   0.10474   0.10474

 Mulliken charges and spin densities:
               1          2
     1  Ti   0.953516   1.985110
     2  O   -0.953516   0.014890
 Sum of Mulliken charges =  -0.00000   2.00000

 Dipole moment (field-independent basis, Debye):
    X=              0.0000    Y=              0.0000    Z=              7.0548  Tot=              7.0548
 Quadrupole moment (field-independent basis, Debye-Ang):
   XX=            -21.7848   YY=            -21.7848   ZZ=            -30.6750
   XY=              0.0000   XZ=              0.0000   YZ=              0.0000

 \\#P ROCCSD(T)=(maxcyc=150, Full, SaveAmplitudes, ReadAmplitudes)/Gen
 508648\CCSD(T)=-74.0077984\RMSD=9.473e-09\PG=C*V [C*(O1Ti1)]\\@
 Normal termination of Gaussian 16 at Sat Mar 10 02:12:12 2018.
