 Gaussian 16, Revision A.03,
 Gaussian 16:  ES64L-G16RevA.03 25-Dec-2016

 ----------------------------------------------------------------------
 #P ROCCSD(T)=(maxcyc=150, Full, SaveAmplitudes, ReadAmplitudes)/Gen 5d
  7f SCF=(maxcycles=300) Integral(NoXCTest) MaxDisk=500GB Pop=Regular P
 seudo=Read Guess=Read
 ----------------------------------------------------------------------

 ---
 TiO
 ---
 Symbolic Z-matrix:
 Charge =  0 Multiplicity = 3

                         Standard orientation:
 ---------------------------------------------------------------------
 Center     Atomic      Atomic             Coordinates (Angstroms)
 Number     Number       Type             X           Y           Z
 ---------------------------------------------------------------------
      1         22           0        0.000000    0.000000    0.426667
      2          8           0        0.000000    0.000000   -1.173333
 ---------------------------------------------------------------------

 SCF Done:  E(ROHF) =  -73.4189775136     A.U. after   19 cycles
 E2 =    -0.7749743989D+00 EUMP2 =    -0.74193951912521D+02
 CCSD(T)
 CCSD(T)= -0.74221200774D+02

 Unable to determine electronic state:  an orbital has unidentified symmetry.
 Alpha  occ. eigenvalues --   -3.01548  -1.90945  -1.90945  -1.89880  -1.16591
 Alpha  occ. eigenvalues --   -0.46777  -0.45517  -0.45191  -0.45191  -0.26252
 Alpha virt. eigenvalues --    0.00358   0.00358   0.01460   0.02342   0.03655
 Alpha virt. eigenvalues --    0.03655   0.03697   0.03769   0.04171   0.04171
 Alpha virt. eigenvalues --    0.04195   0.05309   0.09106   0.10356   0.11571

 Mulliken charges and spin densities:
               1          2
     1  Ti   1.019132   1.969919
     2  O   -1.019132   0.030081
 Sum of Mulliken charges =  -0.00000   2.00000

 Dipole moment (field-independent basis, Debye):
    X=              0.0000    Y=              0.0000    Z=              4.1386  Tot=              4.1386
 Quadrupole moment (field-independent basis, Debye-Ang):
   XX=            -21.4857   YY=            -21.4857   ZZ=            -29.1022
   XY=              0.0000   XZ=              0.0000   YZ=              0.0000

 \\#P ROCCSD(T)=(maxcyc=150, Full, SaveAmplitudes, ReadAmplitudes)/Gen
 -0=-74.1939519\CCSD=-74.1750664\CCSD(T)=-74.2212008\RMSD=2.159e-09\PG=
 Normal termination of Gaussian 16 at Fri Mar  9 17:00:57 2018.
