 Gaussian 16, Revision A.03,
 Gaussian 16:  ES64L-G16RevA.03 25-Dec-2016

 ----------------------------------------------------------------------
 #P ROCCSD(T)=(maxcyc=150, Full, SaveAmplitudes, ReadAmplitudes)/Gen 5d
  7f SCF=(maxcycles=300) Integral(NoXCTest) MaxDisk=500GB Pop=Regular P
 seudo=Read Guess=Read IOp(5/15=2)
 ----------------------------------------------------------------------

 ---
 MnH
 ---
 Symbolic Z-matrix:
 Charge =  0 Multiplicity = 7

                         Standard orientation:
 ---------------------------------------------------------------------
 Center     Atomic      Atomic             Coordinates (Angstroms)
 Number     Number       Type             X           Y           Z
 ---------------------------------------------------------------------
      1         25           0        0.000000    0.000000    0.076923
      2          1           0        0.000000    0.000000   -1.923077
 ---------------------------------------------------------------------

 SCF Done:  E(ROHF) =  -104.067720212     A.U. after   22 cycles
 E2 =    -0.5630400329D+00 EUMP2 =    -0.10463076024469D+03
 CCSD(T)
 CCSD(T)= -0.10465501463D+03

 The electronic state is 7-SG.
 Alpha  occ. eigenvalues --   -4.25695  -2.81167  -2.81167  -2.80873  -0.65842
 Alpha  occ. eigenvalues --   -0.65842  -0.65159  -0.65159  -0.65116  -0.38709
 Alpha  occ. eigenvalues --   -0.27009
 Alpha virt. eigenvalues --    0.00999   0.00999   0.02298   0.03137   0.05497
 Alpha virt. eigenvalues --    0.05497   0.07958   0.08376   0.08376   0.08874
 Alpha virt. eigenvalues --    0.08874   0.10346   0.13337   0.18147   0.22344

 Mulliken charges and spin densities:
               1          2
     1  Mn   0.430334   5.955005
     2  H   -0.430334   0.044995
 Sum of Mulliken charges =  -0.00000   6.00000

 Dipole moment (field-independent basis, Debye):
    X=              0.0000    Y=              0.0000    Z=              2.4068  Tot=              2.4068
 Quadrupole moment (field-independent basis, Debye-Ang):
   XX=            -16.4894   YY=            -16.4894   ZZ=            -28.0613
   XY=              0.0000   XZ=              0.0000   YZ=              0.0000

 \\#P ROCCSD(T)=(maxcyc=150, Full, SaveAmplitudes, ReadAmplitudes)/Gen
 6383593\CCSD=-104.6396864\CCSD(T)=-104.6550146\RMSD=9.093e-09\PG=C*V [
 Normal termination of Gaussian 16 at Mon Feb 26 18:38:10 2018.
