 Gaussian 16, Revision A.03,
 Gaussian 16:  ES64L-G16RevA.03 25-Dec-2016

 ----------------------------------------------------------------------
 #P ROCCSD(T)=(maxcyc=150, Full, SaveAmplitudes, ReadAmplitudes)/Gen 5d
  7f SCF=(maxcycles=300) Integral(NoXCTest) MaxDisk=500GB Pop=Regular P
 seudo=Read Guess=Read
 ----------------------------------------------------------------------

 ---
 ScO
 ---
 Symbolic Z-matrix:
 Charge =  0 Multiplicity = 2

                         Standard orientation:
 ---------------------------------------------------------------------
 Center     Atomic      Atomic             Coordinates (Angstroms)
 Number     Number       Type             X           Y           Z
 ---------------------------------------------------------------------
      1         21           0        0.000000    0.000000    0.496552
      2          8           0        0.000000    0.000000   -1.303448
 ---------------------------------------------------------------------

 SCF Done:  E(ROHF) =  -61.9188731876     A.U. after   17 cycles
 E2 =    -0.7139345532D+00 EUMP2 =    -0.62632807740850D+02
 CCSD(T)
 CCSD(T)= -0.62661653863D+02

 The electronic state is 2-SG.
 Alpha  occ. eigenvalues --   -2.68272  -1.67561  -1.66452  -1.66452  -1.11983
 Alpha  occ. eigenvalues --   -0.41540  -0.38610  -0.38610  -0.26379
 Alpha virt. eigenvalues --   -0.00452  -0.00452   0.01083   0.01942   0.02659
 Alpha virt. eigenvalues --    0.02659   0.02783   0.02783   0.03222   0.03222
 Alpha virt. eigenvalues --    0.03600   0.04085   0.06096   0.06096   0.09126

 Mulliken charges and spin densities:
               1          2
     1  Sc   1.253159   0.985578
     2  O   -1.253159   0.014422
 Sum of Mulliken charges =  -0.00000   1.00000

 Dipole moment (field-independent basis, Debye):
    X=              0.0000    Y=              0.0000    Z=              5.7459  Tot=              5.7459
 Quadrupole moment (field-independent basis, Debye-Ang):
   XX=            -21.9074   YY=            -21.9074   ZZ=            -33.4268
   XY=              0.0000   XZ=              0.0000   YZ=              0.0000

 \\#P ROCCSD(T)=(maxcyc=150, Full, SaveAmplitudes, ReadAmplitudes)/Gen
 188732\PMP2-0=-62.6328077\CCSD=-62.6161523\CCSD(T)=-62.6616539\RMSD=3.
 Normal termination of Gaussian 16 at Wed Feb 21 06:36:54 2018.
