 Gaussian 16, Revision A.03,
 Gaussian 16:  ES64L-G16RevA.03 25-Dec-2016

 ----------------------------------------------------------------------
 #P ROCCSD(T)=(maxcyc=150, Full)/Gen 5d 7f SCF=(maxcycles=300) Integral
 (NoXCTest) MaxDisk=500GB Pop=Regular Pseudo=Read
 ----------------------------------------------------------------------

 ---
 MnH
 ---
 Symbolic Z-matrix:
 Charge =  0 Multiplicity = 7

                         Standard orientation:
 ---------------------------------------------------------------------
 Center     Atomic      Atomic             Coordinates (Angstroms)
 Number     Number       Type             X           Y           Z
 ---------------------------------------------------------------------
      1         25           0        0.000000    0.000000    0.046154
      2          1           0        0.000000    0.000000   -1.153846
 ---------------------------------------------------------------------

 SCF Done:  E(ROHF) =  -103.942330497     A.U. after   28 cycles
 E2 =    -0.5935530014D+00 EUMP2 =    -0.10453588349874D+03
 CCSD(T)
 CCSD(T)= -0.10455600861D+03

 The electronic state is 7-SG.
 Alpha  occ. eigenvalues --   -4.15658  -2.80865  -2.79933  -2.79933  -0.68136
 Alpha  occ. eigenvalues --   -0.63591  -0.63591  -0.63461  -0.63461  -0.41132
 Alpha  occ. eigenvalues --   -0.23675
 Alpha virt. eigenvalues --    0.01357   0.01357   0.02086   0.03326   0.05817
 Alpha virt. eigenvalues --    0.05817   0.08518   0.08518   0.08656   0.08921
 Alpha virt. eigenvalues --    0.08927   0.08927   0.14186   0.22024   0.22632

 Mulliken charges and spin densities:
               1          2
     1  Mn   0.480865   5.933629
     2  H   -0.480865   0.066371
 Sum of Mulliken charges =  -0.00000   6.00000

 Dipole moment (field-independent basis, Debye):
    X=              0.0000    Y=              0.0000    Z=             -0.3630  Tot=              0.3630
 Quadrupole moment (field-independent basis, Debye-Ang):
   XX=            -15.9592   YY=            -15.9592   ZZ=            -25.3247
   XY=              0.0000   XZ=              0.0000   YZ=              0.0000

 \\#P ROCCSD(T)=(maxcyc=150, Full)/Gen 5d 7f SCF=(maxcycles=300) Integr
 35\MP4SDQ=-104.5378576\CCSD=-104.5390975\CCSD(T)=-104.5560086\RMSD=5.2
 Normal termination of Gaussian 16 at Mon Feb 12 20:17:29 2018.
