 Gaussian 16, Revision A.03,
 Gaussian 16:  ES64L-G16RevA.03 25-Dec-2016

 ----------------------------------------------------------------------
 #P ROCCSD(T)=(maxcyc=150, Full, SaveAmplitudes, ReadAmplitudes)/Gen 5d
  7f SCF=(maxcycles=300) Integral(NoXCTest) MaxDisk=500GB Pop=Regular P
 seudo=Read Guess=Read IOp(5/15=2)
 ----------------------------------------------------------------------

 ---
 ScO
 ---
 Symbolic Z-matrix:
 Charge =  0 Multiplicity = 2

                         Standard orientation:
 ---------------------------------------------------------------------
 Center     Atomic      Atomic             Coordinates (Angstroms)
 Number     Number       Type             X           Y           Z
 ---------------------------------------------------------------------
      1         21           0        0.000000    0.000000    0.551724
      2          8           0        0.000000    0.000000   -1.448276
 ---------------------------------------------------------------------

 SCF Done:  E(ROHF) =  -61.9973664995     A.U. after   18 cycles
 E2 =    -0.6966156802D+00 EUMP2 =    -0.62693982179708D+02
 CCSD(T)
 CCSD(T)= -0.62727515781D+02

 The electronic state is 2-SG.
 Alpha  occ. eigenvalues --   -2.77226  -1.70912  -1.70912  -1.70400  -1.09778
 Alpha  occ. eigenvalues --   -0.38922  -0.34674  -0.34674  -0.28489
 Alpha virt. eigenvalues --   -0.01319  -0.01319   0.00520   0.01752   0.02818
 Alpha virt. eigenvalues --    0.02818   0.03127   0.03127   0.03696   0.04384
 Alpha virt. eigenvalues --    0.04384   0.04997   0.05162   0.05162   0.09637

 Mulliken charges and spin densities:
               1          2
     1  Sc   1.186816   0.976818
     2  O   -1.186816   0.023182
 Sum of Mulliken charges =  -0.00000   1.00000

 Dipole moment (field-independent basis, Debye):
    X=              0.0000    Y=              0.0000    Z=              7.5289  Tot=              7.5289
 Quadrupole moment (field-independent basis, Debye-Ang):
   XX=            -22.0525   YY=            -22.0525   ZZ=            -34.6734
   XY=              0.0000   XZ=              0.0000   YZ=              0.0000

 \\#P ROCCSD(T)=(maxcyc=150, Full, SaveAmplitudes, ReadAmplitudes)/Gen
 3\CCSD=-62.6761633\CCSD(T)=-62.7275158\RMSD=9.666e-10\PG=C*V [C*(O1Sc1
 Normal termination of Gaussian 16 at Wed Feb 21 08:21:25 2018.
