 Gaussian 16, Revision A.03,
 Gaussian 16:  ES64L-G16RevA.03 25-Dec-2016

 ----------------------------------------------------------------------
 #P ROCCSD(T)=(maxcyc=150, Full, SaveAmplitudes, ReadAmplitudes)/Gen 5d
  7f SCF=(maxcycles=300) Integral(NoXCTest) MaxDisk=500GB Pop=Regular P
 seudo=Read Guess=Read IOp(5/15=2)
 ----------------------------------------------------------------------

 ---
 ScO
 ---
 Symbolic Z-matrix:
 Charge =  0 Multiplicity = 2

                         Standard orientation:
 ---------------------------------------------------------------------
 Center     Atomic      Atomic             Coordinates (Angstroms)
 Number     Number       Type             X           Y           Z
 ---------------------------------------------------------------------
      1         21           0        0.000000    0.000000    0.413793
      2          8           0        0.000000    0.000000   -1.086207
 ---------------------------------------------------------------------

 SCF Done:  E(ROHF) =  -61.8099121807     A.U. after   18 cycles
 E2 =    -0.6754385056D+00 EUMP2 =    -0.62485350686248D+02
 CCSD(T)
 CCSD(T)= -0.62512291441D+02

 The electronic state is 2-SG.
 Alpha  occ. eigenvalues --   -2.61002  -1.68633  -1.58132  -1.58132  -1.10753
 Alpha  occ. eigenvalues --   -0.48076  -0.48076  -0.45084  -0.22480
 Alpha virt. eigenvalues --    0.00614   0.00614   0.01959   0.02286   0.03704
 Alpha virt. eigenvalues --    0.03704   0.03851   0.03851   0.04115   0.04334
 Alpha virt. eigenvalues --    0.04334   0.06627   0.09760   0.09760   0.10897

 Mulliken charges and spin densities:
               1          2
     1  Sc   1.287144   0.979508
     2  O   -1.287144   0.020492
 Sum of Mulliken charges =  -0.00000   1.00000

 Dipole moment (field-independent basis, Debye):
    X=              0.0000    Y=              0.0000    Z=              2.7275  Tot=              2.7275
 Quadrupole moment (field-independent basis, Debye-Ang):
   XX=            -22.1066   YY=            -22.1066   ZZ=            -31.0851
   XY=              0.0000   XZ=              0.0000   YZ=              0.0000

 \\#P ROCCSD(T)=(maxcyc=150, Full, SaveAmplitudes, ReadAmplitudes)/Gen
 74\CCSD=-62.4774027\CCSD(T)=-62.5122914\RMSD=4.505e-09\PG=C*V [C*(O1Sc
 Normal termination of Gaussian 16 at Wed Feb 21 01:11:36 2018.
