 Gaussian 16, Revision A.03,
 Gaussian 16:  ES64L-G16RevA.03 25-Dec-2016

 ----------------------------------------------------------------------
 #P ROCCSD(T)=(MaxCyc=150, Full)/Gen SCF=(maxcycle=400) Pseudo=Read Int
 egral(NoXCTest) Pop=Regular MaxDisk=500GB Guess=Read IOp(5/15=2)
 ----------------------------------------------------------------------

 ---
 ZnO
 ---
 Symbolic Z-matrix:
 Charge =  0 Multiplicity = 1

                         Standard orientation:
 ---------------------------------------------------------------------
 Center     Atomic      Atomic             Coordinates (Angstroms)
 Number     Number       Type             X           Y           Z
 ---------------------------------------------------------------------
      1         30           0        0.000000    0.000000    0.294737
      2          8           0        0.000000    0.000000   -1.105263
 ---------------------------------------------------------------------

 SCF Done:  E(ROHF) =  -241.585115195     A.U. after    1 cycles
 E2 =    -0.1360907241D+01 EUMP2 =    -0.24294602243567D+03
 CCSD(T)
 CCSD(T)= -0.24288278477D+03

 The electronic state is 1-SG.
 Alpha  occ. eigenvalues --   -5.61417  -3.91723  -3.90089  -3.90089  -1.22290
 Alpha  occ. eigenvalues --   -0.84918  -0.84918  -0.81905  -0.81905  -0.78636
 Alpha  occ. eigenvalues --   -0.40824  -0.40824  -0.39779
 Alpha virt. eigenvalues --   -0.03780   0.02983   0.02983   0.03042   0.04577
 Alpha virt. eigenvalues --    0.09942   0.09942   0.13614   0.18208   0.21761
 Alpha virt. eigenvalues --    0.23374   0.23374   0.25142   0.25142   0.30236

 Mulliken charges and spin densities:
               1          2
     1  Zn   1.301075   0.000000
     2  O   -1.301075   0.000000
 Sum of Mulliken charges =   0.00000   0.00000

 Dipole moment (field-independent basis, Debye):
    X=              0.0000    Y=              0.0000    Z=              6.5942  Tot=              6.5942
 Quadrupole moment (field-independent basis, Debye-Ang):
   XX=            -17.7724   YY=            -17.7724   ZZ=            -19.9989
   XY=              0.0000   XZ=              0.0000   YZ=              0.0000

 P ROCCSD(T)=(MaxCyc=150, Full)/Gen SCF=(maxcycle=400) Pseudo=Read Inte
 2-0=-242.9460224\MP4SDQ=-242.8831118\CCSD=-242.8341989\CCSD(T)=-242.88
 Normal termination of Gaussian 16 at Tue Mar 27 11:37:46 2018.
