 Gaussian 16, Revision A.03,
 Gaussian 16:  ES64L-G16RevA.03 25-Dec-2016

 ----------------------------------------------------------------------
 #P ROCCSD(T)=(MaxCyc=150, Full)/Gen SCF=(maxcycle=400) Pseudo=Read Int
 egral(NoXCTest) Pop=Regular MaxDisk=500GB Guess=Read IOp(5/15=2)
 ----------------------------------------------------------------------

 ---
 ZnO
 ---
 Symbolic Z-matrix:
 Charge =  0 Multiplicity = 1

                         Standard orientation:
 ---------------------------------------------------------------------
 Center     Atomic      Atomic             Coordinates (Angstroms)
 Number     Number       Type             X           Y           Z
 ---------------------------------------------------------------------
      1         30           0        0.000000    0.000000    0.294737
      2          8           0        0.000000    0.000000   -1.105263
 ---------------------------------------------------------------------

 SCF Done:  E(ROHF) =  -241.588558584     A.U. after   12 cycles
 E2 =    -0.1429546578D+01 EUMP2 =    -0.24301810516201D+03
 CCSD(T)
 CCSD(T)= -0.24295244700D+03

 The electronic state is 1-SG.
 Alpha  occ. eigenvalues --   -5.61379  -3.91691  -3.90066  -3.90066  -1.22237
 Alpha  occ. eigenvalues --   -0.84913  -0.84913  -0.81903  -0.81903  -0.78621
 Alpha  occ. eigenvalues --   -0.40826  -0.40826  -0.39763
 Alpha virt. eigenvalues --   -0.03771   0.02684   0.02684   0.02792   0.04137
 Alpha virt. eigenvalues --    0.08637   0.08637   0.12329   0.16670   0.17955
 Alpha virt. eigenvalues --    0.18153   0.18153   0.20159   0.20159   0.23026

 Mulliken charges and spin densities:
               1          2
     1  Zn   1.088032   0.000000
     2  O   -1.088032   0.000000
 Sum of Mulliken charges =  -0.00000   0.00000

 Dipole moment (field-independent basis, Debye):
    X=              0.0000    Y=              0.0000    Z=              6.5817  Tot=              6.5817
 Quadrupole moment (field-independent basis, Debye-Ang):
   XX=            -17.7617   YY=            -17.7617   ZZ=            -19.9917
   XY=              0.0000   XZ=              0.0000   YZ=              0.0000

 P ROCCSD(T)=(MaxCyc=150, Full)/Gen SCF=(maxcycle=400) Pseudo=Read Inte
 2-0=-243.0181052\MP4SDQ=-242.9491245\CCSD=-242.9012614\CCSD(T)=-242.95
 Normal termination of Gaussian 16 at Tue Mar 27 13:55:07 2018.
