 Gaussian 16, Revision A.03,
 Gaussian 16:  ES64L-G16RevA.03 25-Dec-2016

 ----------------------------------------------------------------------
 #P ROCCSD(T)=(maxcyc=150, Full, SaveAmplitudes, ReadAmplitudes)/Gen 5d
  7f SCF=(maxcycles=300, VShift=400) Integral(NoXCTest) MaxDisk=500GB P
 op=Full Pseudo=Read Guess=Read IOp(5/15=2)
 ----------------------------------------------------------------------

 ---
 CrO
 ---
 Symbolic Z-matrix:
 Charge =  0 Multiplicity = 5

                         Standard orientation:
 ---------------------------------------------------------------------
 Center     Atomic      Atomic             Coordinates (Angstroms)
 Number     Number       Type             X           Y           Z
 ---------------------------------------------------------------------
      1         24           0        0.000000    0.000000    0.475000
      2          8           0        0.000000    0.000000   -1.425000
 ---------------------------------------------------------------------

 SCF Done:  E(ROHF) =  -102.102905764     A.U. after   65 cycles
 E2 =    -0.8486866485D+00 EUMP2 =    -0.10295159241292D+03
 CCSD(T)
 CCSD(T)= -0.10300987115D+03

 Unable to determine electronic state:  an orbital has unidentified symmetry.
 Alpha  occ. eigenvalues --   -3.78923  -2.50094  -2.44921  -2.44207  -1.08747
 Alpha  occ. eigenvalues --   -0.60248  -0.57862  -0.57687  -0.55078  -0.33448
 Alpha  occ. eigenvalues --   -0.33005  -0.31802
 Alpha virt. eigenvalues --   -0.05165   0.00588   0.01202   0.01583   0.03693
 Alpha virt. eigenvalues --    0.04847   0.06002   0.07330   0.07334   0.07614
 Alpha virt. eigenvalues --    0.08333   0.08588   0.12598   0.12641   0.15524

 Mulliken charges and spin densities:
               1          2
     1  Cr   1.120575   3.966908
     2  O   -1.120575   0.033092
 Sum of Mulliken charges =  -0.00000   4.00000

 Dipole moment (field-independent basis, Debye):
    X=              0.0000    Y=              0.0000    Z=             10.0820  Tot=             10.0820
 Quadrupole moment (field-independent basis, Debye-Ang):
   XX=            -19.5988   YY=            -18.9551   ZZ=            -24.8467
   XY=              0.0000   XZ=              0.0000   YZ=              0.0000

 \\#P ROCCSD(T)=(maxcyc=150, Full, SaveAmplitudes, ReadAmplitudes)/Gen
 638967\CCSD=-102.9553503\CCSD(T)=-103.0098711\RMSD=9.683e-09\PG=C*V [C
 Normal termination of Gaussian 16 at Wed Apr  4 08:03:27 2018.
