 Gaussian 16, Revision A.03,
 Gaussian 16:  ES64L-G16RevA.03 25-Dec-2016

 ----------------------------------------------------------------------
 #P ROCCSD(T)=(MaxCyc=150, Full)/Gen SCF=(maxcycle=400, vshift=200) Pse
 udo=Read Integral(NoXCTest) Pop=Regular MaxDisk=500GB Guess=Read IOp(5
 /15=2)
 ----------------------------------------------------------------------

 ---
 FeH
 ---
 Symbolic Z-matrix:
 Charge =  0 Multiplicity = 4

                         Standard orientation:
 ---------------------------------------------------------------------
 Center     Atomic      Atomic             Coordinates (Angstroms)
 Number     Number       Type             X           Y           Z
 ---------------------------------------------------------------------
      1         26           0        0.000000    0.000000    0.040741
      2          1           0        0.000000    0.000000   -1.059259
 ---------------------------------------------------------------------

 SCF Done:  E(ROHF) =  -123.190989806     A.U. after   34 cycles
 E2 =    -0.7828391433D+00 EUMP2 =    -0.12397382894951D+03
 CCSD(T)
 CCSD(T)= -0.12396962883D+03

 Unable to determine electronic state:  an orbital has unidentified symmetry.
 Alpha  occ. eigenvalues --   -4.23900  -2.87577  -2.84165  -2.84165  -0.58936
 Alpha  occ. eigenvalues --   -0.57155  -0.57155  -0.54016  -0.49148  -0.30023
 Alpha virt. eigenvalues --    0.00682   0.02429   0.02429   0.02767   0.04867
 Alpha virt. eigenvalues --    0.08080   0.08080   0.09531   0.10192   0.10192
 Alpha virt. eigenvalues --    0.10331   0.10364   0.10534   0.16269   0.25430

 Mulliken charges and spin densities:
               1          2
     1  Fe   0.236118   2.987032
     2  H   -0.236118   0.012968
 Sum of Mulliken charges =  -0.00000   3.00000

 Dipole moment (field-independent basis, Debye):
    X=              0.0000    Y=              0.0000    Z=              2.7338  Tot=              2.7338
 Quadrupole moment (field-independent basis, Debye-Ang):
   XX=            -16.9870   YY=            -16.9870   ZZ=            -15.8906
   XY=              0.0000   XZ=              0.0000   YZ=              0.0000

 \\#P ROCCSD(T)=(MaxCyc=150, Full)/Gen SCF=(maxcycle=400, vshift=200) P
 \PMP2-0=-123.9738289\MP4SDQ=-123.9509062\CCSD=-123.9405144\CCSD(T)=-12
 Normal termination of Gaussian 16 at Sat Mar 24 00:35:28 2018.
