 Gaussian 16, Revision A.03,
 Gaussian 16:  ES64L-G16RevA.03 25-Dec-2016

 ----------------------------------------------------------------------
 #P ROCCSD(T)=(MaxCyc=150, Full)/Gen SCF=(maxcycle=400, vshift=200) Pse
 udo=Read Integral(NoXCTest) Pop=Regular MaxDisk=500GB Guess=Read IOp(5
 /15=2)
 ----------------------------------------------------------------------

 ---
 FeH
 ---
 Symbolic Z-matrix:
 Charge =  0 Multiplicity = 4

                         Standard orientation:
 ---------------------------------------------------------------------
 Center     Atomic      Atomic             Coordinates (Angstroms)
 Number     Number       Type             X           Y           Z
 ---------------------------------------------------------------------
      1         26           0        0.000000    0.000000    0.040741
      2          1           0        0.000000    0.000000   -1.059259
 ---------------------------------------------------------------------

 SCF Done:  E(ROHF) =  -123.192617761     A.U. after   23 cycles
 E2 =    -0.8184097051D+00 EUMP2 =    -0.12401102746558D+03
 CCSD(T)
 CCSD(T)= -0.12400495374D+03

 Unable to determine electronic state:  partially filled degenerate orbitals.
 Alpha  occ. eigenvalues --   -4.23876  -2.87554  -2.84145  -2.84145  -0.58941
 Alpha  occ. eigenvalues --   -0.57156  -0.57156  -0.54018  -0.49153  -0.30020
 Alpha virt. eigenvalues --    0.00648   0.02235   0.02235   0.02515   0.04764
 Alpha virt. eigenvalues --    0.06284   0.06777   0.06777   0.06866   0.06877
 Alpha virt. eigenvalues --    0.07294   0.07294   0.09087   0.17130   0.18468

 Mulliken charges and spin densities:
               1          2
     1  Fe   0.286138   2.988839
     2  H   -0.286138   0.011161
 Sum of Mulliken charges =  -0.00000   3.00000

 Dipole moment (field-independent basis, Debye):
    X=              0.0000    Y=              0.0000    Z=              2.7320  Tot=              2.7320
 Quadrupole moment (field-independent basis, Debye-Ang):
   XX=            -16.9807   YY=            -16.9807   ZZ=            -15.8931
   XY=              0.0000   XZ=              0.0000   YZ=              0.0000

 \\#P ROCCSD(T)=(MaxCyc=150, Full)/Gen SCF=(maxcycle=400, vshift=200) P
 \PMP2-0=-124.0110275\MP4SDQ=-123.9845701\CCSD=-123.9744942\CCSD(T)=-12
 Normal termination of Gaussian 16 at Sat Mar 24 01:17:28 2018.
