 Gaussian 16, Revision A.03,
 Gaussian 16:  ES64L-G16RevA.03 25-Dec-2016

 ----------------------------------------------------------------------
 #P ROCCSD(T)=(MaxCyc=150, Full)/Gen SCF=(maxcycle=400, vshift=200) Pse
 udo=Read Integral(NoXCTest) Pop=Regular MaxDisk=500GB Guess=Read IOp(5
 /15=2)
 ----------------------------------------------------------------------

 ---
 FeH
 ---
 Symbolic Z-matrix:
 Charge =  0 Multiplicity = 4

                         Standard orientation:
 ---------------------------------------------------------------------
 Center     Atomic      Atomic             Coordinates (Angstroms)
 Number     Number       Type             X           Y           Z
 ---------------------------------------------------------------------
      1         26           0        0.000000    0.000000    0.040741
      2          1           0        0.000000    0.000000   -1.059259
 ---------------------------------------------------------------------

 SCF Done:  E(ROHF) =  -123.192806442     A.U. after   17 cycles
 E2 =    -0.8326877115D+00 EUMP2 =    -0.12402549415342D+03
 CCSD(T)
 CCSD(T)= -0.12401744768D+03

 Unable to determine electronic state:  partially filled degenerate orbitals.
 Alpha  occ. eigenvalues --   -4.23873  -2.87550  -2.84142  -2.84142  -0.58943
 Alpha  occ. eigenvalues --   -0.57154  -0.57154  -0.54014  -0.49155  -0.30020
 Alpha virt. eigenvalues --    0.00577   0.02174   0.02174   0.02256   0.04060
 Alpha virt. eigenvalues --    0.05983   0.06226   0.06226   0.06290   0.06299
 Alpha virt. eigenvalues --    0.06975   0.06975   0.08001   0.12817   0.17522

 Mulliken charges and spin densities:
               1          2
     1  Fe   0.294616   2.985376
     2  H   -0.294616   0.014624
 Sum of Mulliken charges =  -0.00000   3.00000

 Dipole moment (field-independent basis, Debye):
    X=              0.0000    Y=              0.0000    Z=              2.7323  Tot=              2.7323
 Quadrupole moment (field-independent basis, Debye-Ang):
   XX=            -16.9793   YY=            -16.9793   ZZ=            -15.8941
   XY=              0.0000   XZ=              0.0000   YZ=              0.0000

 \\#P ROCCSD(T)=(MaxCyc=150, Full)/Gen SCF=(maxcycle=400, vshift=200) P
 MP2-0=-124.0254942\MP4SDQ=-123.9964331\CCSD=-123.9865167\CCSD(T)=-124.
 Normal termination of Gaussian 16 at Sat Mar 24 03:06:22 2018.
