 Gaussian 16, Revision A.03,
 Gaussian 16:  ES64L-G16RevA.03 25-Dec-2016

 ----------------------------------------------------------------------
 #P ROCCSD(T)=(maxcyc=150, Full, SaveAmplitudes, ReadAmplitudes)/Gen 5d
  7f SCF=(maxcycles=300) Integral(NoXCTest) MaxDisk=500GB Pop=Regular P
 seudo=Read Guess=Read IOp(5/15=2)
 ----------------------------------------------------------------------

 ---
 MnO
 ---
 Symbolic Z-matrix:
 Charge =  0 Multiplicity = 6

                         Standard orientation:
 ---------------------------------------------------------------------
 Center     Atomic      Atomic             Coordinates (Angstroms)
 Number     Number       Type             X           Y           Z
 ---------------------------------------------------------------------
      1         25           0        0.000000    0.000000    0.315152
      2          8           0        0.000000    0.000000   -0.984848
 ---------------------------------------------------------------------

 SCF Done:  E(ROHF) =  -119.010732115     A.U. after   31 cycles
 E2 =    -0.9292868492D+00 EUMP2 =    -0.11994001896391D+03
 CCSD(T)
 CCSD(T)= -0.11994709454D+03

 The electronic state is 6-SG.
 Alpha  occ. eigenvalues --   -4.13721  -2.77896  -2.77896  -2.77890  -1.27739
 Alpha  occ. eigenvalues --   -0.73411  -0.73411  -0.61372  -0.61372  -0.60205
 Alpha  occ. eigenvalues --   -0.40671  -0.40671  -0.30151
 Alpha virt. eigenvalues --    0.01914   0.02424   0.02424   0.03164   0.06382
 Alpha virt. eigenvalues --    0.07592   0.07592   0.08765   0.08765   0.09363
 Alpha virt. eigenvalues --    0.09363   0.10255   0.12073   0.16376   0.24533

 Mulliken charges and spin densities:
               1          2
     1  Mn   0.796802   4.760450
     2  O   -0.796802   0.239550
 Sum of Mulliken charges =  -0.00000   5.00000

 Dipole moment (field-independent basis, Debye):
    X=              0.0000    Y=              0.0000    Z=              2.7151  Tot=              2.7151
 Quadrupole moment (field-independent basis, Debye-Ang):
   XX=            -19.8484   YY=            -19.8484   ZZ=            -22.9118
   XY=              0.0000   XZ=              0.0000   YZ=              0.0000

 \\#P ROCCSD(T)=(maxcyc=150, Full, SaveAmplitudes, ReadAmplitudes)/Gen
 218347\CCSD=-119.9077895\CCSD(T)=-119.9470945\RMSD=7.132e-09\PG=C*V [C
 Normal termination of Gaussian 16 at Sat Mar 10 05:12:22 2018.
