 Gaussian 16, Revision A.03,
 Gaussian 16:  ES64L-G16RevA.03 25-Dec-2016

 ----------------------------------------------------------------------
 #P ROCCSD(T)=(MaxCyc=150, Full)/Gen SCF=(maxcycle=400) Pseudo=Read Int
 egral(NoXCTest) Pop=Regular MaxDisk=500GB Guess=Read IOp(5/15=2)
 ----------------------------------------------------------------------

 --
 Fe
 --
 Symbolic Z-matrix:
 Charge =  0 Multiplicity = 5

                         Standard orientation:
 ---------------------------------------------------------------------
 Center     Atomic      Atomic             Coordinates (Angstroms)
 Number     Number       Type             X           Y           Z
 ---------------------------------------------------------------------
      1         26           0        0.000000    0.000000    0.000000
 ---------------------------------------------------------------------

 SCF Done:  E(ROHF) =  -123.037820859     A.U. after   18 cycles
 E2 =    -0.6955170488D+00 EUMP2 =    -0.12373333790822D+03
 CCSD(T)
 CCSD(T)= -0.12374611643D+03

 Unable to determine electronic state:  an orbital has unidentified symmetry.
 Alpha  occ. eigenvalues --   -4.60015  -3.04480  -3.04479  -2.96757  -0.70303
 Alpha  occ. eigenvalues --   -0.70303  -0.67187  -0.67187  -0.60892  -0.27552
 Alpha virt. eigenvalues --    0.01807   0.01807   0.01962   0.02199   0.05818
 Alpha virt. eigenvalues --    0.05818   0.06174   0.06207   0.06207   0.06226
 Alpha virt. eigenvalues --    0.06226   0.06240   0.10796   0.19259   0.19259

 Mulliken charges and spin densities:
               1          2
     1  Fe  -0.000000   4.000000
 Sum of Mulliken charges =  -0.00000   4.00000

 Dipole moment (field-independent basis, Debye):
    X=              0.0000    Y=              0.0000    Z=              0.0000  Tot=              0.0000
 Quadrupole moment (field-independent basis, Debye-Ang):
   XX=            -17.8828   YY=            -17.8828   ZZ=            -18.2119
   XY=              0.0000   XZ=             -0.0000   YZ=              0.0000

 1\1\GINC-C506-024\SP\ROCCSD(T)-Full\Gen\Fe1(5)\GWANG18\23-Mar-2018\0\\
 #P ROCCSD(T)=(MaxCyc=150, Full)/Gen SCF=(maxcycle=400) Pseudo=Read Int
 egral(NoXCTest) Pop=Regular MaxDisk=500GB Guess=Read IOp(5/15=2)\\Fe\\
 0,5\Fe,0,0.,0.,0.\\Version=ES64L-G16RevA.03\HF=-123.0378209\MP2=-123.7
 333379\MP3=-123.7182285\PUHF=-123.0378209\PMP2-0=-123.7333379\MP4SDQ=-
 123.7258871\CCSD=-123.7247341\CCSD(T)=-123.7461164\RMSD=4.936e-09\PG=O
 H [O(Fe1)]\\@

 Normal termination of Gaussian 16 at Fri Mar 23 14:02:58 2018.
