 Gaussian 16, Revision A.03,
 Gaussian 16:  ES64L-G16RevA.03 25-Dec-2016

 ----------------------------------------------------------------------
 #P ROCCSD(T)=(MaxCyc=150, Full)/Gen SCF=(maxcycle=400) Pseudo=Read Int
 egral(NoXCTest) Pop=Regular MaxDisk=500GB Guess=Read IOp(5/15=2)
 ----------------------------------------------------------------------

 --
 Fe
 --
 Symbolic Z-matrix:
 Charge =  0 Multiplicity = 5

                         Standard orientation:
 ---------------------------------------------------------------------
 Center     Atomic      Atomic             Coordinates (Angstroms)
 Number     Number       Type             X           Y           Z
 ---------------------------------------------------------------------
      1         26           0        0.000000    0.000000    0.000000
 ---------------------------------------------------------------------

 SCF Done:  E(ROHF) =  -123.032197175     A.U. after    1 cycles
 E2 =    -0.6827229832D+00 EUMP2 =    -0.12371492015813D+03
 CCSD(T)
 CCSD(T)= -0.12372933295D+03

 Unable to determine electronic state:  an orbital has unidentified symmetry.
 Alpha  occ. eigenvalues --   -4.59889  -3.04518  -3.04518  -2.96796  -0.70295
 Alpha  occ. eigenvalues --   -0.70295  -0.67181  -0.67181  -0.60883  -0.27550
 Alpha virt. eigenvalues --    0.01839   0.01839   0.02001   0.02707   0.06037
 Alpha virt. eigenvalues --    0.06037   0.06404   0.06760   0.06760   0.06783
 Alpha virt. eigenvalues --    0.06783   0.06799   0.14340   0.20544   0.20544

 Mulliken charges and spin densities:
               1          2
     1  Fe  -0.000000   4.000000
 Sum of Mulliken charges =  -0.00000   4.00000

 Dipole moment (field-independent basis, Debye):
    X=              0.0000    Y=              0.0000    Z=              0.0000  Tot=              0.0000
 Quadrupole moment (field-independent basis, Debye-Ang):
   XX=            -17.8858   YY=            -17.8858   ZZ=            -18.2152
   XY=              0.0000   XZ=             -0.0000   YZ=              0.0000

 1\1\GINC-C506-021\SP\ROCCSD(T)-Full\Gen\Fe1(5)\GWANG18\23-Mar-2018\0\\
 #P ROCCSD(T)=(MaxCyc=150, Full)/Gen SCF=(maxcycle=400) Pseudo=Read Int
 egral(NoXCTest) Pop=Regular MaxDisk=500GB Guess=Read IOp(5/15=2)\\Fe\\
 0,5\Fe,0,0.,0.,0.\\Version=ES64L-G16RevA.03\HF=-123.0321972\MP2=-123.7
 149202\MP3=-123.7016258\PUHF=-123.0321972\PMP2-0=-123.7149202\MP4SDQ=-
 123.7095667\CCSD=-123.7083293\CCSD(T)=-123.7293329\RMSD=3.856e-09\PG=O
 H [O(Fe1)]\\@

 Normal termination of Gaussian 16 at Fri Mar 23 12:41:24 2018.
