 Gaussian 16, Revision A.03,
 Gaussian 16:  ES64L-G16RevA.03 25-Dec-2016

 ----------------------------------------------------------------------
 #P ROCCSD(T)=(MaxCyc=150, Full)/Gen SCF=(maxcycle=400) Pseudo=Read Int
 egral(NoXCTest) Pop=Regular MaxDisk=500GB Guess=Read IOp(5/15=2)
 ----------------------------------------------------------------------

 --
 Fe
 --
 Symbolic Z-matrix:
 Charge =  0 Multiplicity = 5

                         Standard orientation:
 ---------------------------------------------------------------------
 Center     Atomic      Atomic             Coordinates (Angstroms)
 Number     Number       Type             X           Y           Z
 ---------------------------------------------------------------------
      1         26           0        0.000000    0.000000    0.000000
 ---------------------------------------------------------------------

 SCF Done:  E(ROHF) =  -123.036992807     A.U. after    1 cycles
 E2 =    -0.6503669876D+00 EUMP2 =    -0.12368735979432D+03
 CCSD(T)
 CCSD(T)= -0.12370296138D+03

 Unable to determine electronic state:  an orbital has unidentified symmetry.
 Alpha  occ. eigenvalues --   -4.60057  -3.07108  -2.99307  -2.99306  -0.70268
 Alpha  occ. eigenvalues --   -0.69257  -0.69257  -0.66100  -0.60890  -0.27557
 Alpha virt. eigenvalues --    0.01884   0.02073   0.02073   0.02827   0.06701
 Alpha virt. eigenvalues --    0.07097   0.07097   0.10060   0.10074   0.10074
 Alpha virt. eigenvalues --    0.10117   0.10145   0.14886   0.25095   0.25787

 Mulliken charges and spin densities:
               1          2
     1  Fe   0.000000   4.000000
 Sum of Mulliken charges =   0.00000   4.00000

 Dipole moment (field-independent basis, Debye):
    X=              0.0000    Y=              0.0000    Z=              0.0000  Tot=              0.0000
 Quadrupole moment (field-independent basis, Debye-Ang):
   XX=            -18.0812   YY=            -17.8158   ZZ=            -18.0812
   XY=             -0.0000   XZ=              0.0000   YZ=              0.0000

 1\1\GINC-C506-021\SP\ROCCSD(T)-Full\Gen\Fe1(5)\GWANG18\23-Mar-2018\0\\
 #P ROCCSD(T)=(MaxCyc=150, Full)/Gen SCF=(maxcycle=400) Pseudo=Read Int
 egral(NoXCTest) Pop=Regular MaxDisk=500GB Guess=Read IOp(5/15=2)\\Fe\\
 0,5\Fe,0,0.,0.,0.\\Version=ES64L-G16RevA.03\HF=-123.0369928\MP2=-123.6
 873598\MP3=-123.6755744\PUHF=-123.0369928\PMP2-0=-123.6873598\MP4SDQ=-
 123.6844136\CCSD=-123.6830493\CCSD(T)=-123.7029614\RMSD=3.085e-09\PG=O
 H [O(Fe1)]\\@

 Normal termination of Gaussian 16 at Fri Mar 23 12:36:21 2018.
