 Gaussian 16, Revision A.03,
 Gaussian 16:  ES64L-G16RevA.03 25-Dec-2016

 ----------------------------------------------------------------------
 #P ROCCSD(T)=(maxcyc=150, Full, SaveAmplitudes, ReadAmplitudes)/Gen 5d
  7f SCF=(maxcycles=300) Integral(NoXCTest) MaxDisk=500GB Pop=Regular P
 seudo=Read Guess=Read IOp(5/15=2)
 ----------------------------------------------------------------------

 ---
 MnO
 ---
 Symbolic Z-matrix:
 Charge =  0 Multiplicity = 6

                         Standard orientation:
 ---------------------------------------------------------------------
 Center     Atomic      Atomic             Coordinates (Angstroms)
 Number     Number       Type             X           Y           Z
 ---------------------------------------------------------------------
      1         25           0        0.000000    0.000000    0.363636
      2          8           0        0.000000    0.000000   -1.136364
 ---------------------------------------------------------------------

 SCF Done:  E(ROHF) =  -119.136762279     A.U. after   52 cycles
 E2 =    -0.9237266030D+00 EUMP2 =    -0.12006048888232D+03
 CCSD(T)
 CCSD(T)= -0.12007515459D+03

 The electronic state is 6-SG.
 Alpha  occ. eigenvalues --   -4.15408  -2.80029  -2.80029  -2.77636  -1.19868
 Alpha  occ. eigenvalues --   -0.67964  -0.67964  -0.63721  -0.63721  -0.53392
 Alpha  occ. eigenvalues --   -0.38921  -0.38921  -0.33457
 Alpha virt. eigenvalues --   -0.00515   0.01973   0.01973   0.03258   0.03877
 Alpha virt. eigenvalues --    0.06869   0.06869   0.08656   0.08656   0.08793
 Alpha virt. eigenvalues --    0.09463   0.09463   0.13174   0.14624   0.23195

 Mulliken charges and spin densities:
               1          2
     1  Mn   1.022123   4.820206
     2  O   -1.022123   0.179794
 Sum of Mulliken charges =  -0.00000   5.00000

 Dipole moment (field-independent basis, Debye):
    X=              0.0000    Y=              0.0000    Z=              6.1538  Tot=              6.1538
 Quadrupole moment (field-independent basis, Debye-Ang):
   XX=            -19.3600   YY=            -19.3600   ZZ=            -22.8557
   XY=              0.0000   XZ=              0.0000   YZ=              0.0000

 \\#P ROCCSD(T)=(maxcyc=150, Full, SaveAmplitudes, ReadAmplitudes)/Gen
 .0505384\CCSD=-120.0329112\CCSD(T)=-120.0751546\RMSD=7.534e-09\PG=C*V
 Normal termination of Gaussian 16 at Sat Mar 10 06:31:17 2018.
