 Gaussian 16, Revision A.03,
 Gaussian 16:  ES64L-G16RevA.03 25-Dec-2016

 ----------------------------------------------------------------------
 #P ROCCSD(T)=(MaxCyc=150, Full)/Gen SCF=(maxcycle=400, vshift=200) Pse
 udo=Read Integral(NoXCTest) Pop=Regular MaxDisk=500GB Guess=Read IOp(5
 /15=2)
 ----------------------------------------------------------------------

 ---
 CoH
 ---
 Symbolic Z-matrix:
 Charge =  0 Multiplicity = 3

                         Standard orientation:
 ---------------------------------------------------------------------
 Center     Atomic      Atomic             Coordinates (Angstroms)
 Number     Number       Type             X           Y           Z
 ---------------------------------------------------------------------
      1         27           0        0.000000    0.000000    0.050000
      2          1           0        0.000000    0.000000   -1.350000
 ---------------------------------------------------------------------

 SCF Done:  E(ROHF) =  -145.142665488     A.U. after   68 cycles
 E2 =    -0.8677925130D+00 EUMP2 =    -0.14601045800111D+03
 CCSD(T)
 CCSD(T)= -0.14599089541D+03

 Unable to determine electronic state:  partially filled degenerate orbitals.
 Alpha  occ. eigenvalues --   -4.53635  -2.98392  -2.98269  -2.98269  -0.49716
 Alpha  occ. eigenvalues --   -0.48777  -0.44178  -0.44178  -0.44156  -0.32461
 Alpha virt. eigenvalues --    0.00286   0.02701   0.02701   0.03249   0.05266
 Alpha virt. eigenvalues --    0.09423   0.09423   0.10243   0.11372   0.11414
 Alpha virt. eigenvalues --    0.11483   0.11567   0.11567   0.18956   0.25732

 Mulliken charges and spin densities:
               1          2
     1  Co   0.349556   1.972857
     2  H   -0.349556   0.027143
 Sum of Mulliken charges =  -0.00000   2.00000

 Dipole moment (field-independent basis, Debye):
    X=              0.0000    Y=              0.0000    Z=              4.0965  Tot=              4.0965
 Quadrupole moment (field-independent basis, Debye-Ang):
   XX=            -13.8997   YY=            -13.8997   ZZ=            -17.1139
   XY=              0.0000   XZ=              0.0000   YZ=              0.0000

 \\#P ROCCSD(T)=(MaxCyc=150, Full)/Gen SCF=(maxcycle=400, vshift=200) P
 PMP2-0=-146.010458\MP4SDQ=-145.9850319\CCSD=-145.9599089\CCSD(T)=-145.
 Normal termination of Gaussian 16 at Sat Apr 21 22:43:22 2018.
