 Gaussian 16, Revision A.03,
 Gaussian 16:  ES64L-G16RevA.03 25-Dec-2016

 ----------------------------------------------------------------------
 #P ROCCSD(T)=(MaxCyc=150, Full)/Gen SCF=(maxcycle=400, vshift=200) Pse
 udo=Read Integral(NoXCTest) Pop=Regular MaxDisk=500GB Guess=Read IOp(5
 /15=2)
 ----------------------------------------------------------------------

 ---
 CoH
 ---
 Symbolic Z-matrix:
 Charge =  0 Multiplicity = 3

                         Standard orientation:
 ---------------------------------------------------------------------
 Center     Atomic      Atomic             Coordinates (Angstroms)
 Number     Number       Type             X           Y           Z
 ---------------------------------------------------------------------
      1         27           0        0.000000    0.000000    0.050000
      2          1           0        0.000000    0.000000   -1.350000
 ---------------------------------------------------------------------

 SCF Done:  E(ROHF) =  -145.144076416     A.U. after   26 cycles
 E2 =    -0.9293667750D+00 EUMP2 =    -0.14607344319085D+03
 CCSD(T)
 CCSD(T)= -0.14604999797D+03

 Unable to determine electronic state:  partially filled degenerate orbitals.
 Alpha  occ. eigenvalues --   -4.53635  -2.98386  -2.98263  -2.98263  -0.49714
 Alpha  occ. eigenvalues --   -0.48774  -0.44190  -0.44190  -0.44164  -0.32460
 Alpha virt. eigenvalues --    0.00189   0.02374   0.02374   0.02654   0.04328
 Alpha virt. eigenvalues --    0.06448   0.06655   0.06666   0.06879   0.06879
 Alpha virt. eigenvalues --    0.08219   0.08219   0.08667   0.14742   0.18900

 Mulliken charges and spin densities:
               1          2
     1  Co   0.345243   1.978017
     2  H   -0.345243   0.021983
 Sum of Mulliken charges =  -0.00000   2.00000

 Dipole moment (field-independent basis, Debye):
    X=              0.0000    Y=              0.0000    Z=              4.0925  Tot=              4.0925
 Quadrupole moment (field-independent basis, Debye-Ang):
   XX=            -13.8876   YY=            -13.8876   ZZ=            -17.1163
   XY=              0.0000   XZ=              0.0000   YZ=              0.0000

 \\#P ROCCSD(T)=(MaxCyc=150, Full)/Gen SCF=(maxcycle=400, vshift=200) P
 \PMP2-0=-146.0734432\MP4SDQ=-146.041048\CCSD=-146.0168184\CCSD(T)=-146
 Normal termination of Gaussian 16 at Sat Apr 28 21:10:19 2018.
