 Gaussian 16, Revision A.03,
 Gaussian 16:  ES64L-G16RevA.03 25-Dec-2016

 ----------------------------------------------------------------------
 #P ROCCSD(T)=(MaxCyc=150, Full)/Gen SCF=(maxcycle=400, vshift=200) Pse
 udo=Read Integral(NoXCTest) Pop=Regular MaxDisk=500GB Guess=Read IOp(5
 /15=2)
 ----------------------------------------------------------------------

 ---
 CoH
 ---
 Symbolic Z-matrix:
 Charge =  0 Multiplicity = 3

                         Standard orientation:
 ---------------------------------------------------------------------
 Center     Atomic      Atomic             Coordinates (Angstroms)
 Number     Number       Type             X           Y           Z
 ---------------------------------------------------------------------
      1         27           0        0.000000    0.000000    0.050000
      2          1           0        0.000000    0.000000   -1.350000
 ---------------------------------------------------------------------

 SCF Done:  E(ROHF) =  -145.143858006     A.U. after   34 cycles
 E2 =    -0.9093211094D+00 EUMP2 =    -0.14605317911570D+03
 CCSD(T)
 CCSD(T)= -0.14603197950D+03

 Unable to determine electronic state:  partially filled degenerate orbitals.
 Alpha  occ. eigenvalues --   -4.53636  -2.98385  -2.98262  -2.98262  -0.49716
 Alpha  occ. eigenvalues --   -0.48776  -0.44184  -0.44184  -0.44159  -0.32460
 Alpha virt. eigenvalues --    0.00254   0.02453   0.02453   0.02958   0.05016
 Alpha virt. eigenvalues --    0.06992   0.07365   0.07379   0.07557   0.07557
 Alpha virt. eigenvalues --    0.08615   0.08615   0.09947   0.18925   0.20232

 Mulliken charges and spin densities:
               1          2
     1  Co   0.362208   1.991803
     2  H   -0.362208   0.008197
 Sum of Mulliken charges =  -0.00000   2.00000

 Dipole moment (field-independent basis, Debye):
    X=              0.0000    Y=              0.0000    Z=              4.0931  Tot=              4.0931
 Quadrupole moment (field-independent basis, Debye-Ang):
   XX=            -13.8881   YY=            -13.8881   ZZ=            -17.1160
   XY=              0.0000   XZ=              0.0000   YZ=              0.0000

 \\#P ROCCSD(T)=(MaxCyc=150, Full)/Gen SCF=(maxcycle=400, vshift=200) P
 MP2-0=-146.0531791\MP4SDQ=-146.0239794\CCSD=-145.9994002\CCSD(T)=-146.
 Normal termination of Gaussian 16 at Sat Apr 21 23:26:35 2018.
