 Gaussian 16, Revision A.03,
 Gaussian 16:  ES64L-G16RevA.03 25-Dec-2016

 ----------------------------------------------------------------------
 #P ROCCSD(T)=(maxcyc=150, Full)/Gen 5d 7f SCF=(maxcycles=300) Integral
 (NoXCTest) MaxDisk=500GB Pop=Regular Pseudo=Read IOp(5/15=2) Guess=Rea
 d
 ----------------------------------------------------------------------

 ---
 ScH
 ---
 Symbolic Z-matrix:
 Charge =  0 Multiplicity = 1

                         Standard orientation:
 ---------------------------------------------------------------------
 Center     Atomic      Atomic             Coordinates (Angstroms)
 Number     Number       Type             X           Y           Z
 ---------------------------------------------------------------------
      1         21           0        0.000000    0.000000    0.081818
      2          1           0        0.000000    0.000000   -1.718182
 ---------------------------------------------------------------------

 SCF Done:  E(ROHF) =  -46.7973132503     A.U. after    9 cycles
 E2 =    -0.4288697406D+00 EUMP2 =    -0.47226182990915D+02
 CCSD(T)
 CCSD(T)= -0.47267811235D+02

 The electronic state is 1-SG.
 Alpha  occ. eigenvalues --   -2.73156  -1.66576  -1.66576  -1.66544  -0.40487
 Alpha  occ. eigenvalues --   -0.23364
 Alpha virt. eigenvalues --    0.01118   0.01118   0.01449   0.01702   0.02594
 Alpha virt. eigenvalues --    0.02594   0.02660   0.02660   0.02696   0.03973
 Alpha virt. eigenvalues --    0.04041   0.04041   0.06867   0.06867   0.06988

 Mulliken charges and spin densities:
               1          2
     1  Sc   0.374222   0.000000
     2  H   -0.374222   0.000000
 Sum of Mulliken charges =  -0.00000   0.00000

 Dipole moment (field-independent basis, Debye):
    X=              0.0000    Y=              0.0000    Z=              1.4952  Tot=              1.4952
 Quadrupole moment (field-independent basis, Debye-Ang):
   XX=            -22.8864   YY=            -22.8864   ZZ=            -26.7145
   XY=              0.0000   XZ=              0.0000   YZ=              0.0000

 P ROCCSD(T)=(maxcyc=150, Full)/Gen 5d 7f SCF=(maxcycles=300) Integral(
 P2-0=-47.226183\MP4SDQ=-47.2480201\CCSD=-47.2481203\CCSD(T)=-47.267811
 Normal termination of Gaussian 16 at Wed Feb 14 06:45:06 2018.
