 Gaussian 16, Revision A.03,
 Gaussian 16:  ES64L-G16RevA.03 25-Dec-2016

 ----------------------------------------------------------------------
 #P ROCCSD(T)=(MaxCyc=150, Full)/Gen SCF=(maxcycle=400) Integral(DKHSO,
  NoXCTest) Pop=Regular MaxDisk=500GB Guess=Read IOp(5/15=2)
 ----------------------------------------------------------------------

 ---
 FeH
 ---
 Symbolic Z-matrix:
 Charge =  0 Multiplicity = 4

                         Standard orientation:
 ---------------------------------------------------------------------
 Center     Atomic      Atomic             Coordinates (Angstroms)
 Number     Number       Type             X           Y           Z
 ---------------------------------------------------------------------
      1         26           0        0.000000    0.000000    0.055556
      2          1           0        0.000000    0.000000   -1.444444
 ---------------------------------------------------------------------

 SCF Done:  E(ROHF) =  -1271.82012637     A.U. after   30 cycles
 E2 =    -0.1219804689D+01 EUMP2 =    -0.12730399310567D+04
 CCSD(T)
 CCSD(T)= -0.12730207509D+04

 Unable to determine electronic state:  partially filled degenerate orbitals.
 Alpha  occ. eigenvalues -- -263.54336 -32.32125 -27.38925 -27.38865 -27.38865
 Alpha  occ. eigenvalues --   -4.21735  -2.76928  -2.75917  -2.75917  -0.50877
 Alpha  occ. eigenvalues --   -0.50877  -0.49749  -0.46323  -0.44801  -0.31645
 Alpha virt. eigenvalues --   -0.00229   0.02228   0.02228   0.02855   0.04079
 Alpha virt. eigenvalues --    0.06236   0.06808   0.06821   0.06850   0.06850
 Alpha virt. eigenvalues --    0.07714   0.07714   0.09710   0.16685   0.17911

 Mulliken charges and spin densities:
               1          2
     1  Fe   0.292783   2.995436
     2  H   -0.292783   0.004564
 Sum of Mulliken charges =  -0.00000   3.00000

 Dipole moment (field-independent basis, Debye):
    X=             -0.0000    Y=             -0.0000    Z=              4.0810  Tot=              4.0810
 Quadrupole moment (field-independent basis, Debye-Ang):
   XX=            -16.1334   YY=            -16.1334   ZZ=            -17.1374
   XY=             -0.0000   XZ=             -0.0000   YZ=              0.0000

 \\#P ROCCSD(T)=(MaxCyc=150, Full)/Gen SCF=(maxcycle=400) Integral(DKHS
 .0399311\MP4SDQ=-1273.0019209\CCSD=-1272.9890446\CCSD(T)=-1273.0207509
 Normal termination of Gaussian 16 at Wed Mar  7 15:29:30 2018.
