 Gaussian 16, Revision A.03,
 Gaussian 16:  ES64L-G16RevA.03 25-Dec-2016

 ----------------------------------------------------------------------
 #P ROCCSD(T)=(MaxCyc=150, Full)/Gen SCF=(maxcycle=400) Integral(DKHSO,
  NoXCTest) Pop=Regular MaxDisk=500GB Guess=Read IOp(5/15=2)
 ----------------------------------------------------------------------

 ---
 FeH
 ---
 Symbolic Z-matrix:
 Charge =  0 Multiplicity = 4

                         Standard orientation:
 ---------------------------------------------------------------------
 Center     Atomic      Atomic             Coordinates (Angstroms)
 Number     Number       Type             X           Y           Z
 ---------------------------------------------------------------------
      1         26           0        0.000000    0.000000    0.055556
      2          1           0        0.000000    0.000000   -1.444444
 ---------------------------------------------------------------------

 SCF Done:  E(ROHF) =  -1271.82040125     A.U. after   44 cycles
 E2 =    -0.1247729537D+01 EUMP2 =    -0.12730681307844D+04
 CCSD(T)
 CCSD(T)= -0.12730472174D+04

 Unable to determine electronic state:  an orbital has unidentified symmetry.
 Alpha  occ. eigenvalues -- -263.54337 -32.32121 -27.38919 -27.38860 -27.38860
 Alpha  occ. eigenvalues --   -4.21730  -2.76923  -2.75913  -2.75913  -0.50874
 Alpha  occ. eigenvalues --   -0.50874  -0.49745  -0.46325  -0.44803  -0.31646
 Alpha virt. eigenvalues --   -0.00262   0.02161   0.02161   0.02548   0.03519
 Alpha virt. eigenvalues --    0.05802   0.06235   0.06245   0.06329   0.06329
 Alpha virt. eigenvalues --    0.07366   0.07366   0.08502   0.13017   0.16899

 Mulliken charges and spin densities:
               1          2
     1  Fe   0.287272   2.994833
     2  H   -0.287272   0.005167
 Sum of Mulliken charges =  -0.00000   3.00000

 Dipole moment (field-independent basis, Debye):
    X=             -0.0000    Y=             -0.0000    Z=              4.0809  Tot=              4.0809
 Quadrupole moment (field-independent basis, Debye-Ang):
   XX=            -16.1311   YY=            -16.1311   ZZ=            -17.1400
   XY=              0.0000   XZ=             -0.0000   YZ=              0.0000

 \\#P ROCCSD(T)=(MaxCyc=150, Full)/Gen SCF=(maxcycle=400) Integral(DKHS
 .0681308\MP4SDQ=-1273.0275983\CCSD=-1273.0147941\CCSD(T)=-1273.0472174
 Normal termination of Gaussian 16 at Fri Mar  9 05:58:31 2018.
