 Gaussian 16, Revision A.03,
 Gaussian 16:  ES64L-G16RevA.03 25-Dec-2016

 ----------------------------------------------------------------------
 #P ROCCSD(T)=(maxcyc=150, Full, SaveAmplitudes, ReadAmplitudes)/Gen 5d
  7f SCF=(maxcycles=300) Integral(NoXCTest) MaxDisk=500GB Pop=Regular P
 seudo=Read Guess=Read
 ----------------------------------------------------------------------

 ---
 ScO
 ---
 Symbolic Z-matrix:
 Charge =  0 Multiplicity = 2

                         Standard orientation:
 ---------------------------------------------------------------------
 Center     Atomic      Atomic             Coordinates (Angstroms)
 Number     Number       Type             X           Y           Z
 ---------------------------------------------------------------------
      1         21           0        0.000000    0.000000    0.358621
      2          8           0        0.000000    0.000000   -0.941379
 ---------------------------------------------------------------------

 SCF Done:  E(ROHF) =  -61.9043902896     A.U. after   15 cycles
 E2 =    -0.7046110109D+00 EUMP2 =    -0.62609001300464D+02
 CCSD(T)
 CCSD(T)= -0.62634656824D+02

 The electronic state is 2-SG.
 Alpha  occ. eigenvalues --   -2.63398  -1.75144  -1.52084  -1.52084  -1.05577
 Alpha  occ. eigenvalues --   -0.57678  -0.57678  -0.46840  -0.19472
 Alpha virt. eigenvalues --    0.00947   0.00947   0.01885   0.02293   0.02810
 Alpha virt. eigenvalues --    0.02810   0.02895   0.02895   0.02895   0.04168
 Alpha virt. eigenvalues --    0.04168   0.06551   0.08076   0.08076   0.08558

 Mulliken charges and spin densities:
               1          2
     1  Sc   0.980605   1.015077
     2  O   -0.980605  -0.015077
 Sum of Mulliken charges =  -0.00000   1.00000

 Dipole moment (field-independent basis, Debye):
    X=              0.0000    Y=              0.0000    Z=              0.1859  Tot=              0.1859
 Quadrupole moment (field-independent basis, Debye-Ang):
   XX=            -22.7047   YY=            -22.7047   ZZ=            -29.6003
   XY=              0.0000   XZ=              0.0000   YZ=              0.0000

 \\#P ROCCSD(T)=(maxcyc=150, Full, SaveAmplitudes, ReadAmplitudes)/Gen
 043903\PMP2-0=-62.6090013\CCSD=-62.6027621\CCSD(T)=-62.6346568\RMSD=3.
 Normal termination of Gaussian 16 at Wed Feb 28 20:07:24 2018.
