 Gaussian 16, Revision A.03,
 Gaussian 16:  ES64L-G16RevA.03 25-Dec-2016

 ----------------------------------------------------------------------
 #P ROCCSD(T)=(maxcyc=150, Full, SaveAmplitudes, ReadAmplitudes)/Gen 5d
  7f SCF=(maxcycles=300) Integral(NoXCTest) MaxDisk=500GB Pop=Regular P
 seudo=Read Guess=Read
 ----------------------------------------------------------------------

 ---
 ScO
 ---
 Symbolic Z-matrix:
 Charge =  0 Multiplicity = 2

                         Standard orientation:
 ---------------------------------------------------------------------
 Center     Atomic      Atomic             Coordinates (Angstroms)
 Number     Number       Type             X           Y           Z
 ---------------------------------------------------------------------
      1         21           0        0.000000    0.000000    0.441379
      2          8           0        0.000000    0.000000   -1.158621
 ---------------------------------------------------------------------

 SCF Done:  E(ROHF) =  -61.9676109430     A.U. after   17 cycles
 E2 =    -0.7106697644D+00 EUMP2 =    -0.62678280707413D+02
 CCSD(T)
 CCSD(T)= -0.62704416952D+02

 The electronic state is 2-SG.
 Alpha  occ. eigenvalues --   -2.63814  -1.66444  -1.60444  -1.60444  -1.12545
 Alpha  occ. eigenvalues --   -0.44208  -0.44208  -0.43901  -0.23974
 Alpha virt. eigenvalues --    0.00299   0.00299   0.01539   0.02090   0.02735
 Alpha virt. eigenvalues --    0.02735   0.03027   0.03027   0.03275   0.03393
 Alpha virt. eigenvalues --    0.03393   0.05170   0.07263   0.07263   0.09312

 Mulliken charges and spin densities:
               1          2
     1  Sc   1.254044   0.990275
     2  O   -1.254044   0.009725
 Sum of Mulliken charges =  -0.00000   1.00000

 Dipole moment (field-independent basis, Debye):
    X=              0.0000    Y=              0.0000    Z=              3.8538  Tot=              3.8538
 Quadrupole moment (field-independent basis, Debye-Ang):
   XX=            -21.8640   YY=            -21.8640   ZZ=            -31.7335
   XY=              0.0000   XZ=              0.0000   YZ=              0.0000

 \\#P ROCCSD(T)=(maxcyc=150, Full, SaveAmplitudes, ReadAmplitudes)/Gen
 676109\PMP2-0=-62.6782807\CCSD=-62.6645795\CCSD(T)=-62.704417\RMSD=4.2
 Normal termination of Gaussian 16 at Wed Mar  7 12:58:39 2018.
