 Gaussian 16, Revision A.03,
 Gaussian 16:  ES64L-G16RevA.03 25-Dec-2016

 ----------------------------------------------------------------------
 #P ROCCSD(T)=(maxcyc=150, Full, SaveAmplitudes, ReadAmplitudes)/Gen 5d
  7f SCF=(maxcycles=300) Integral(NoXCTest) MaxDisk=500GB Pop=Regular P
 seudo=Read Guess=Read IOp(5/15=2)
 ----------------------------------------------------------------------

 ---
 TiO
 ---
 Symbolic Z-matrix:
 Charge =  0 Multiplicity = 3

                         Standard orientation:
 ---------------------------------------------------------------------
 Center     Atomic      Atomic             Coordinates (Angstroms)
 Number     Number       Type             X           Y           Z
 ---------------------------------------------------------------------
      1         22           0        0.000000    0.000000    0.480000
      2          8           0        0.000000    0.000000   -1.320000
 ---------------------------------------------------------------------

 SCF Done:  E(ROHF) =  -73.5184873115     A.U. after   22 cycles
 E2 =    -0.7575162263D+00 EUMP2 =    -0.74276003537803D+02
 CCSD(T)
 CCSD(T)= -0.74310286083D+02

 Unable to determine electronic state:  an orbital has unidentified symmetry.
 Alpha  occ. eigenvalues --   -3.08956  -1.95510  -1.95510  -1.91439  -1.12865
 Alpha  occ. eigenvalues --   -0.50824  -0.43192  -0.39390  -0.39390  -0.28887
 Alpha virt. eigenvalues --   -0.00441  -0.00441   0.00711   0.02254   0.03589
 Alpha virt. eigenvalues --    0.03589   0.04102   0.04695   0.05081   0.05927
 Alpha virt. eigenvalues --    0.05927   0.06155   0.08551   0.10790   0.11844

 Mulliken charges and spin densities:
               1          2
     1  Ti   0.950303   1.986809
     2  O   -0.950303   0.013191
 Sum of Mulliken charges =  -0.00000   2.00000

 Dipole moment (field-independent basis, Debye):
    X=              0.0000    Y=              0.0000    Z=              6.1625  Tot=              6.1625
 Quadrupole moment (field-independent basis, Debye-Ang):
   XX=            -21.5311   YY=            -21.5311   ZZ=            -30.0279
   XY=              0.0000   XZ=              0.0000   YZ=              0.0000

 \\#P ROCCSD(T)=(maxcyc=150, Full, SaveAmplitudes, ReadAmplitudes)/Gen
 .2571984\CCSD(T)=-74.3102861\RMSD=9.760e-09\PG=C*V [C*(O1Ti1)]\\@
 Normal termination of Gaussian 16 at Mon Mar 12 14:26:31 2018.
