 Gaussian 16, Revision A.03,
 Gaussian 16:  ES64L-G16RevA.03 25-Dec-2016

 ----------------------------------------------------------------------
 #P ROCCSD(T)=(MaxCyc=150, Full)/Gen SCF=(maxcycle=400, vshift=200) Pse
 udo=Read Integral(NoXCTest) Pop=Regular MaxDisk=500GB Guess=Read IOp(5
 /15=2)
 ----------------------------------------------------------------------

 ---
 ZnH
 ---
 Symbolic Z-matrix:
 Charge =  0 Multiplicity = 2

                         Standard orientation:
 ---------------------------------------------------------------------
 Center     Atomic      Atomic             Coordinates (Angstroms)
 Number     Number       Type             X           Y           Z
 ---------------------------------------------------------------------
      1         30           0        0.000000    0.000000    0.054839
      2          1           0        0.000000    0.000000   -1.645161
 ---------------------------------------------------------------------

 SCF Done:  E(ROHF) =  -226.150799732     A.U. after   18 cycles
 E2 =    -0.1079282607D+01 EUMP2 =    -0.22723008233881D+03
 CCSD(T)
 CCSD(T)= -0.22718548216D+03

 The electronic state is 2-SG.
 Alpha  occ. eigenvalues --   -5.88543  -4.00262  -4.00262  -4.00007  -0.80158
 Alpha  occ. eigenvalues --   -0.80158  -0.79878  -0.79639  -0.79639  -0.44642
 Alpha  occ. eigenvalues --   -0.28204
 Alpha virt. eigenvalues --    0.01890   0.01890   0.02836   0.03478   0.06601
 Alpha virt. eigenvalues --    0.06601   0.07792   0.14074   0.16586   0.17931
 Alpha virt. eigenvalues --    0.17931   0.18037   0.18037   0.20932   0.23358

 Mulliken charges and spin densities:
               1          2
     1  Zn   0.311014   0.914056
     2  H   -0.311014   0.085944
 Sum of Mulliken charges =  -0.00000   1.00000

 Dipole moment (field-independent basis, Debye):
    X=              0.0000    Y=              0.0000    Z=              1.0853  Tot=              1.0853
 Quadrupole moment (field-independent basis, Debye-Ang):
   XX=            -14.7039   YY=            -14.7039   ZZ=            -21.5226
   XY=              0.0000   XZ=              0.0000   YZ=              0.0000

 \\#P ROCCSD(T)=(MaxCyc=150, Full)/Gen SCF=(maxcycle=400, vshift=200) P
 CCSD(T)=-227.1854822\RMSD=5.100e-09\PG=C*V [C*(H1Zn1)]\\@
 Normal termination of Gaussian 16 at Sat Apr 21 11:18:31 2018.
