 Gaussian 16, Revision A.03,
 Gaussian 16:  ES64L-G16RevA.03 25-Dec-2016

 ----------------------------------------------------------------------
 #P ROCCSD(T)=(MaxCyc=150, Full)/Gen SCF=(maxcycle=400, vshift=200) Pse
 udo=Read Integral(NoXCTest) Pop=Regular MaxDisk=500GB Guess=Read IOp(5
 /15=2)
 ----------------------------------------------------------------------

 ---
 ZnH
 ---
 Symbolic Z-matrix:
 Charge =  0 Multiplicity = 2

                         Standard orientation:
 ---------------------------------------------------------------------
 Center     Atomic      Atomic             Coordinates (Angstroms)
 Number     Number       Type             X           Y           Z
 ---------------------------------------------------------------------
      1         30           0        0.000000    0.000000    0.054839
      2          1           0        0.000000    0.000000   -1.645161
 ---------------------------------------------------------------------

 SCF Done:  E(ROHF) =  -226.149816336     A.U. after   20 cycles
 E2 =    -0.1024390830D+01 EUMP2 =    -0.22717420716608D+03
 CCSD(T)
 CCSD(T)= -0.22713043494D+03

 The electronic state is 2-SG.
 Alpha  occ. eigenvalues --   -5.88550  -4.00275  -4.00275  -4.00014  -0.80161
 Alpha  occ. eigenvalues --   -0.80161  -0.79877  -0.79639  -0.79639  -0.44644
 Alpha  occ. eigenvalues --   -0.28201
 Alpha virt. eigenvalues --    0.02007   0.02007   0.02952   0.03852   0.07546
 Alpha virt. eigenvalues --    0.07546   0.08785   0.15892   0.17664   0.23968
 Alpha virt. eigenvalues --    0.23968   0.24893   0.24893   0.25175   0.29375

 Mulliken charges and spin densities:
               1          2
     1  Zn   0.344549   0.919888
     2  H   -0.344549   0.080112
 Sum of Mulliken charges =   0.00000   1.00000

 Dipole moment (field-independent basis, Debye):
    X=              0.0000    Y=              0.0000    Z=              1.0825  Tot=              1.0825
 Quadrupole moment (field-independent basis, Debye-Ang):
   XX=            -14.7065   YY=            -14.7065   ZZ=            -21.5247
   XY=              0.0000   XZ=              0.0000   YZ=              0.0000

 \\#P ROCCSD(T)=(MaxCyc=150, Full)/Gen SCF=(maxcycle=400, vshift=200) P
 Normal termination of Gaussian 16 at Sat Apr 21 10:25:50 2018.
