 Gaussian 16, Revision A.03,
 Gaussian 16:  ES64L-G16RevA.03 25-Dec-2016

 ----------------------------------------------------------------------
 #P ROCCSD(T)=(MaxCyc=150, Full)/Gen SCF=(maxcycle=400, vshift=200) Pse
 udo=Read Integral(NoXCTest) Pop=Regular MaxDisk=500GB Guess=Read IOp(5
 /15=2)
 ----------------------------------------------------------------------

 ---
 ZnH
 ---
 Symbolic Z-matrix:
 Charge =  0 Multiplicity = 2

                         Standard orientation:
 ---------------------------------------------------------------------
 Center     Atomic      Atomic             Coordinates (Angstroms)
 Number     Number       Type             X           Y           Z
 ---------------------------------------------------------------------
      1         30           0        0.000000    0.000000    0.054839
      2          1           0        0.000000    0.000000   -1.645161
 ---------------------------------------------------------------------

 SCF Done:  E(ROHF) =  -226.150903445     A.U. after   19 cycles
 E2 =    -0.1105801891D+01 EUMP2 =    -0.22725670533618D+03
 CCSD(T)
 CCSD(T)= -0.22721015963D+03

 The electronic state is 2-SG.
 Alpha  occ. eigenvalues --   -5.88544  -4.00262  -4.00262  -4.00007  -0.80157
 Alpha  occ. eigenvalues --   -0.80157  -0.79877  -0.79639  -0.79639  -0.44642
 Alpha  occ. eigenvalues --   -0.28205
 Alpha virt. eigenvalues --    0.01832   0.01832   0.02376   0.03232   0.06185
 Alpha virt. eigenvalues --    0.06185   0.06774   0.12067   0.13169   0.15357
 Alpha virt. eigenvalues --    0.15357   0.15388   0.15388   0.17991   0.20917

 Mulliken charges and spin densities:
               1          2
     1  Zn   0.273080   0.912618
     2  H   -0.273080   0.087382
 Sum of Mulliken charges =  -0.00000   1.00000

 Dipole moment (field-independent basis, Debye):
    X=              0.0000    Y=              0.0000    Z=              1.0858  Tot=              1.0858
 Quadrupole moment (field-independent basis, Debye-Ang):
   XX=            -14.7034   YY=            -14.7034   ZZ=            -21.5202
   XY=              0.0000   XZ=              0.0000   YZ=              0.0000

 \\#P ROCCSD(T)=(MaxCyc=150, Full)/Gen SCF=(maxcycle=400, vshift=200) P
 CCSD(T)=-227.2101596\RMSD=2.314e-09\PG=C*V [C*(H1Zn1)]\\@
 Normal termination of Gaussian 16 at Sun Apr 29 00:36:26 2018.
