 Gaussian 16, Revision A.03,
 Gaussian 16:  ES64L-G16RevA.03 25-Dec-2016

 ----------------------------------------------------------------------
 #P ROCCSD(T)=(MaxCyc=150, FrzINGC)/Gen SCF=(maxcycle=400) Integral(DKH
 SO, NoXCTest) Pop=Regular MaxDisk=500GB Guess=Permute IOp(5/15=2)
 ----------------------------------------------------------------------

 --
 Fe
 --
 Symbolic Z-matrix:
 Charge =  0 Multiplicity = 5

                         Standard orientation:
 ---------------------------------------------------------------------
 Center     Atomic      Atomic             Coordinates (Angstroms)
 Number     Number       Type             X           Y           Z
 ---------------------------------------------------------------------
      1         26           0        0.000000    0.000000    0.000000
 ---------------------------------------------------------------------

 SCF Done:  E(ROHF) =  -1271.35190274     A.U. after   52 cycles
 E2 =    -0.6419792356D+00 EUMP2 =    -0.12719938819707D+04
 CCSD(T)
 CCSD(T)= -0.12720005638D+04

 Unable to determine electronic state:  an orbital has unidentified symmetry.
 Alpha  occ. eigenvalues -- -263.68631 -32.49520 -27.58275 -27.54890 -27.54890
 Alpha  occ. eigenvalues --   -4.41973  -3.01314  -2.93880  -2.93880  -0.69793
 Alpha  occ. eigenvalues --   -0.68793  -0.68793  -0.65685  -0.60487  -0.27551
 Alpha virt. eigenvalues --    0.01893   0.02079   0.02079   0.02826   0.06718
 Alpha virt. eigenvalues --    0.07111   0.07111   0.10062   0.10076   0.10076
 Alpha virt. eigenvalues --    0.10120   0.10148   0.14879   0.25127   0.25813

 Mulliken charges and spin densities:
               1          2
     1  Fe   0.000000   4.000000
 Sum of Mulliken charges =   0.00000   4.00000

 Dipole moment (field-independent basis, Debye):
    X=              0.0000    Y=              0.0000    Z=              0.0000  Tot=              0.0000
 Quadrupole moment (field-independent basis, Debye-Ang):
   XX=            -18.0410   YY=            -18.3179   ZZ=            -18.3179
   XY=              0.0000   XZ=             -0.0000   YZ=             -0.0000

 P ROCCSD(T)=(MaxCyc=150, FrzINGC)/Gen SCF=(maxcycle=400) Integral(DKHS
 4\CCSD(T)=-1272.0005638\RMSD=7.838e-09\PG=OH [O(Fe1)]\\@
 Normal termination of Gaussian 16 at Thu Mar  1 14:24:49 2018.
