 Gaussian 16, Revision A.03,
 Gaussian 16:  ES64L-G16RevA.03 25-Dec-2016

 ----------------------------------------------------------------------
 #P ROCCSD(T)=(maxcyc=150, Full, SaveAmplitudes, ReadAmplitudes)/Gen 5d
  7f SCF=(maxcycles=300) Integral(NoXCTest, DKHSO) MaxDisk=500GB Pop=Re
 gular Guess=Read
 ----------------------------------------------------------------------

 ---
 CrO
 ---
 Symbolic Z-matrix:
 Charge =  0 Multiplicity = 5

                         Standard orientation:
 ---------------------------------------------------------------------
 Center     Atomic      Atomic             Coordinates (Angstroms)
 Number     Number       Type             X           Y           Z
 ---------------------------------------------------------------------
      1         24           0        0.000000    0.000000    0.475000
      2          8           0        0.000000    0.000000   -1.425000
 ---------------------------------------------------------------------

 SCF Done:  E(ROHF) =  -1124.47804136     A.U. after   29 cycles
 E2 =    -0.1338709065D+01 EUMP2 =    -0.11258167504256D+04
 CCSD(T)
 CCSD(T)= -0.11258583913D+04

 Unable to determine electronic state:  an orbital has unidentified symmetry.
 Alpha  occ. eigenvalues -- -222.24974 -26.84125 -22.47749 -22.47690 -22.47267
 Alpha  occ. eigenvalues --  -20.44810  -3.70388  -2.47549  -2.43202  -2.42403
 Alpha  occ. eigenvalues --   -1.07414  -0.58821  -0.56581  -0.56406  -0.53638
 Alpha  occ. eigenvalues --   -0.33397  -0.32864  -0.31894
 Alpha virt. eigenvalues --   -0.05201   0.00446   0.01015   0.01166   0.03069
 Alpha virt. eigenvalues --    0.04288   0.05146   0.05147   0.05419   0.06109
 Alpha virt. eigenvalues --    0.06158   0.06356   0.10203   0.11231   0.12198

 Mulliken charges and spin densities:
               1          2
     1  Cr   1.080372   3.965011
     2  O   -1.080372   0.034989
 Sum of Mulliken charges =  -0.00000   4.00000

 Dipole moment (field-independent basis, Debye):
    X=              0.0000    Y=              0.0000    Z=             10.1086  Tot=             10.1086
 Quadrupole moment (field-independent basis, Debye-Ang):
   XX=            -20.1231   YY=            -19.4361   ZZ=            -25.2632
   XY=              0.0000   XZ=              0.0000   YZ=              0.0000

 \\#P ROCCSD(T)=(maxcyc=150, Full, SaveAmplitudes, ReadAmplitudes)/Gen
 2-0=-1125.8167504\CCSD=-1125.800684\CCSD(T)=-1125.8583913\RMSD=5.501e-
 Normal termination of Gaussian 16 at Wed Mar  7 06:16:52 2018.
