 Gaussian 16, Revision A.03,
 Gaussian 16:  ES64L-G16RevA.03 25-Dec-2016

 ----------------------------------------------------------------------
 #P ROCCSD(T)=(maxcyc=150, Full, SaveAmplitudes, ReadAmplitudes)/Gen 5d
  7f SCF=(maxcycles=300, VShift=400) Integral(NoXCTest) MaxDisk=500GB P
 op=Full Pseudo=Read Guess=Read
 ----------------------------------------------------------------------

 ---
 ScH
 ---
 Symbolic Z-matrix:
 Charge =  0 Multiplicity = 1

                         Standard orientation:
 ---------------------------------------------------------------------
 Center     Atomic      Atomic             Coordinates (Angstroms)
 Number     Number       Type             X           Y           Z
 ---------------------------------------------------------------------
      1         21           0        0.000000    0.000000    0.068182
      2          1           0        0.000000    0.000000   -1.431818
 ---------------------------------------------------------------------

 SCF Done:  E(ROHF) =  -46.6573886757     A.U. after   21 cycles
 E2 =    -0.4267496450D+00 EUMP2 =    -0.47084138320674D+02
 CCSD(T)
 CCSD(T)= -0.47124792231D+02

 The electronic state is 1-SG.
 Alpha  occ. eigenvalues --   -2.65074  -1.64690  -1.63713  -1.63713  -0.44199
 Alpha  occ. eigenvalues --   -0.22231
 Alpha virt. eigenvalues --    0.01224   0.01224   0.01549   0.01903   0.02879
 Alpha virt. eigenvalues --    0.02879   0.02902   0.02902   0.02915   0.04272
 Alpha virt. eigenvalues --    0.04272   0.04428   0.07859   0.07880   0.07880

 Mulliken charges and spin densities:
               1          2
     1  Sc   0.284725   0.000000
     2  H   -0.284725   0.000000
 Sum of Mulliken charges =  -0.00000   0.00000

 Dipole moment (field-independent basis, Debye):
    X=              0.0000    Y=              0.0000    Z=              0.7833  Tot=              0.7833
 Quadrupole moment (field-independent basis, Debye-Ang):
   XX=            -23.3661   YY=            -23.3661   ZZ=            -24.5941
   XY=              0.0000   XZ=              0.0000   YZ=              0.0000

 P ROCCSD(T)=(maxcyc=150, Full, SaveAmplitudes, ReadAmplitudes)/Gen 5d
 =-46.6573887\PMP2-0=-47.0841383\CCSD=-47.1059735\CCSD(T)=-47.1247922\R
 Normal termination of Gaussian 16 at Thu Apr 19 08:08:02 2018.
