 Gaussian 16, Revision A.03,
 Gaussian 16:  ES64L-G16RevA.03 25-Dec-2016

 ----------------------------------------------------------------------
 #P ROCCSD(T)=(maxcyc=150, Full)/Gen 5d 7f SCF=(maxcycles=300) Integral
 (NoXCTest) MaxDisk=500GB Pop=Regular Pseudo=Read IOp(5/15=2) Guess=Rea
 d
 ----------------------------------------------------------------------

 ---
 ScH
 ---
 Symbolic Z-matrix:
 Charge =  0 Multiplicity = 1

                         Standard orientation:
 ---------------------------------------------------------------------
 Center     Atomic      Atomic             Coordinates (Angstroms)
 Number     Number       Type             X           Y           Z
 ---------------------------------------------------------------------
      1         21           0        0.000000    0.000000    0.090909
      2          1           0        0.000000    0.000000   -1.909091
 ---------------------------------------------------------------------

 SCF Done:  E(ROHF) =  -46.7831741236     A.U. after   11 cycles
 E2 =    -0.4084864937D+00 EUMP2 =    -0.47191660617322D+02
 CCSD(T)
 CCSD(T)= -0.47239217845D+02

 The electronic state is 1-SG.
 Alpha  occ. eigenvalues --   -2.77428  -1.67845  -1.67845  -1.67636  -0.38151
 Alpha  occ. eigenvalues --   -0.23937
 Alpha virt. eigenvalues --    0.00993   0.00993   0.01387   0.02256   0.03577
 Alpha virt. eigenvalues --    0.03775   0.03775   0.03931   0.03931   0.04323
 Alpha virt. eigenvalues --    0.04323   0.04434   0.07404   0.07404   0.08428

 Mulliken charges and spin densities:
               1          2
     1  Sc   0.320396   0.000000
     2  H   -0.320396   0.000000
 Sum of Mulliken charges =  -0.00000   0.00000

 Dipole moment (field-independent basis, Debye):
    X=              0.0000    Y=              0.0000    Z=              2.0941  Tot=              2.0941
 Quadrupole moment (field-independent basis, Debye-Ang):
   XX=            -22.9462   YY=            -22.9462   ZZ=            -28.5603
   XY=              0.0000   XZ=              0.0000   YZ=              0.0000

 P ROCCSD(T)=(maxcyc=150, Full)/Gen 5d 7f SCF=(maxcycles=300) Integral(
 P2-0=-47.1916606\MP4SDQ=-47.2200907\CCSD=-47.2202945\CCSD(T)=-47.23921
 Normal termination of Gaussian 16 at Wed Feb 14 08:11:43 2018.
