 Gaussian 16, Revision A.03,
 Gaussian 16:  ES64L-G16RevA.03 25-Dec-2016

 ----------------------------------------------------------------------
 #P ROCCSD(T)=(maxcyc=150, Full)/Gen 5d 7f SCF=(maxcycles=300, NoVarAcc
 , VShift=200) MaxDisk=100GB Pop=Regular Pseudo=Read Guess=Read IOp(5/1
 5=2)
 ----------------------------------------------------------------------

 --
 Mn
 --
 Symbolic Z-matrix:
 Charge =  0 Multiplicity = 6

                         Standard orientation:
 ---------------------------------------------------------------------
 Center     Atomic      Atomic             Coordinates (Angstroms)
 Number     Number       Type             X           Y           Z
 ---------------------------------------------------------------------
      1         25           0        0.000000    0.000000    0.000000
 ---------------------------------------------------------------------

 SCF Done:  E(ROHF) =  -103.568242986     A.U. after   20 cycles
 E2 =    -0.5930486457D+00 EUMP2 =    -0.10416129163174D+03
 CCSD(T)
 CCSD(T)= -0.10418167978D+03

 The electronic state is 6-A1G.
 Alpha  occ. eigenvalues --   -4.15567  -2.80002  -2.80002  -2.80002  -0.62882
 Alpha  occ. eigenvalues --   -0.62882  -0.62882  -0.62882  -0.62882  -0.26822
 Alpha virt. eigenvalues --    0.01737   0.01737   0.01737   0.02542   0.05827
 Alpha virt. eigenvalues --    0.05827   0.05827   0.06096   0.06096   0.06096
 Alpha virt. eigenvalues --    0.06096   0.06096   0.13384   0.19364   0.19364

 Mulliken charges and spin densities:
               1          2
     1  Mn  -0.000000   5.000000
 Sum of Mulliken charges =  -0.00000   5.00000

 Dipole moment (field-independent basis, Debye):
    X=              0.0000    Y=              0.0000    Z=              0.0000  Tot=              0.0000
 Quadrupole moment (field-independent basis, Debye-Ang):
   XX=            -18.8268   YY=            -18.8268   ZZ=            -18.8268
   XY=              0.0000   XZ=             -0.0000   YZ=             -0.0000

 1\1\GINC-C506-094\SP\ROCCSD(T)-Full\Gen\Mn1(6)\AANNABE\01-Apr-2018\0\\
 #P ROCCSD(T)=(maxcyc=150, Full)/Gen 5d 7f SCF=(maxcycles=300, NoVarAcc
 , VShift=200) MaxDisk=100GB Pop=Regular Pseudo=Read Guess=Read IOp(5/1
 5=2)\\Mn\\0,6\Mn,0,0.,0.,0.\\Version=ES64L-G16RevA.03\State=6-A1G\HF=-
 103.568243\MP2=-104.1612916\MP3=-104.1608441\PUHF=-103.568243\PMP2-0=-
 104.1612916\MP4SDQ=-104.1632226\CCSD=-104.1634158\CCSD(T)=-104.1816798
 \RMSD=7.928e-09\PG=OH [O(Mn1)]\\@

 Normal termination of Gaussian 16 at Sun Apr  1 12:54:24 2018.
