 Gaussian 16, Revision A.03,
 Gaussian 16:  ES64L-G16RevA.03 25-Dec-2016

 ----------------------------------------------------------------------
 #P ROCCSD(T)=(maxcyc=150, Full, SaveAmplitudes, ReadAmplitudes)/Gen 5d
  7f SCF=(maxcycles=300) Integral(NoXCTest) MaxDisk=500GB Pop=Regular P
 seudo=Read Guess=Read
 ----------------------------------------------------------------------

 ---
 ScO
 ---
 Symbolic Z-matrix:
 Charge =  0 Multiplicity = 2

                         Standard orientation:
 ---------------------------------------------------------------------
 Center     Atomic      Atomic             Coordinates (Angstroms)
 Number     Number       Type             X           Y           Z
 ---------------------------------------------------------------------
      1         21           0        0.000000    0.000000    0.413793
      2          8           0        0.000000    0.000000   -1.086207
 ---------------------------------------------------------------------

 SCF Done:  E(ROHF) =  -61.8121752800     A.U. after   16 cycles
 E2 =    -0.7054760535D+00 EUMP2 =    -0.62517651333480D+02
 CCSD(T)
 CCSD(T)= -0.62542122914D+02

 The electronic state is 2-SG.
 Alpha  occ. eigenvalues --   -2.60938  -1.68584  -1.58095  -1.58095  -1.10732
 Alpha  occ. eigenvalues --   -0.48088  -0.48088  -0.45087  -0.22468
 Alpha virt. eigenvalues --    0.00589   0.00589   0.01786   0.02095   0.02764
 Alpha virt. eigenvalues --    0.02764   0.02991   0.02991   0.03105   0.03663
 Alpha virt. eigenvalues --    0.03663   0.05739   0.07622   0.07622   0.09249

 Mulliken charges and spin densities:
               1          2
     1  Sc   1.223239   1.003447
     2  O   -1.223239  -0.003447
 Sum of Mulliken charges =  -0.00000   1.00000

 Dipole moment (field-independent basis, Debye):
    X=              0.0000    Y=              0.0000    Z=              2.7170  Tot=              2.7170
 Quadrupole moment (field-independent basis, Debye-Ang):
   XX=            -22.1031   YY=            -22.1031   ZZ=            -31.0772
   XY=              0.0000   XZ=              0.0000   YZ=              0.0000

 \\#P ROCCSD(T)=(maxcyc=150, Full, SaveAmplitudes, ReadAmplitudes)/Gen
 121753\PMP2-0=-62.5176513\CCSD=-62.5054258\CCSD(T)=-62.5421229\RMSD=9.
 Normal termination of Gaussian 16 at Wed Feb 21 02:15:19 2018.
