 Gaussian 16, Revision A.03,
 Gaussian 16:  ES64L-G16RevA.03 25-Dec-2016

 ----------------------------------------------------------------------
 #P ROCCSD(T)=(MaxCyc=150, Full)/Gen SCF=(maxcycle=400) Pseudo=Read Int
 egral(NoXCTest) Pop=Regular MaxDisk=500GB
 ----------------------------------------------------------------------

 ---
 FeO
 ---
 Symbolic Z-matrix:
 Charge =  0 Multiplicity = 5

                         Standard orientation:
 ---------------------------------------------------------------------
 Center     Atomic      Atomic             Coordinates (Angstroms)
 Number     Number       Type             X           Y           Z
 ---------------------------------------------------------------------
      1         26           0        0.000000    0.000000    0.423529
      2          8           0        0.000000    0.000000   -1.376471
 ---------------------------------------------------------------------

 SCF Done:  E(ROHF) =  -138.805278375     A.U. after   37 cycles
 E2 =    -0.1039448643D+01 EUMP2 =    -0.13984472701745D+03
 CCSD(T)
 CCSD(T)= -0.13986952838D+03

 Unable to determine electronic state:  partially filled degenerate orbitals.
 Alpha  occ. eigenvalues --   -4.40899  -3.03866  -2.96408  -2.96408  -1.09393
 Alpha  occ. eigenvalues --   -0.70933  -0.70933  -0.69430  -0.67754  -0.62650
 Alpha  occ. eigenvalues --   -0.34393  -0.34305  -0.34305
 Alpha virt. eigenvalues --   -0.06024   0.01257   0.01257   0.01357   0.03543
 Alpha virt. eigenvalues --    0.05871   0.05871   0.06356   0.06367   0.06679
 Alpha virt. eigenvalues --    0.07539   0.07539   0.11335   0.13339   0.18929

 Mulliken charges and spin densities:
               1          2
     1  Fe   1.102104   3.934587
     2  O   -1.102104   0.065413
 Sum of Mulliken charges =  -0.00000   4.00000

 Dipole moment (field-independent basis, Debye):
    X=              0.0000    Y=              0.0000    Z=              9.4588  Tot=              9.4588
 Quadrupole moment (field-independent basis, Debye-Ang):
   XX=            -18.7369   YY=            -18.7369   ZZ=            -23.7442
   XY=              0.0000   XZ=              0.0000   YZ=              0.0000

 \\#P ROCCSD(T)=(MaxCyc=150, Full)/Gen SCF=(maxcycle=400) Pseudo=Read I
 479\CCSD=-139.8196503\CCSD(T)=-139.8695284\RMSD=5.333e-09\PG=C*V [C*(O
 Normal termination of Gaussian 16 at Sat Mar 24 03:19:12 2018.
