 Gaussian 16, Revision A.03,
 Gaussian 16:  ES64L-G16RevA.03 25-Dec-2016

 ----------------------------------------------------------------------
 #P ROCCSD(T)=(MaxCyc=150, Full)/Gen SCF=(maxcycle=400) Pseudo=Read Int
 egral(NoXCTest) Pop=Regular MaxDisk=500GB
 ----------------------------------------------------------------------

 ---
 FeO
 ---
 Symbolic Z-matrix:
 Charge =  0 Multiplicity = 5

                         Standard orientation:
 ---------------------------------------------------------------------
 Center     Atomic      Atomic             Coordinates (Angstroms)
 Number     Number       Type             X           Y           Z
 ---------------------------------------------------------------------
      1         26           0        0.000000    0.000000    0.423529
      2          8           0        0.000000    0.000000   -1.376471
 ---------------------------------------------------------------------

 SCF Done:  E(ROHF) =  -138.802772849     A.U. after   34 cycles
 E2 =    -0.9927460667D+00 EUMP2 =    -0.13979551891619D+03
 CCSD(T)
 CCSD(T)= -0.13982288112D+03

 Unable to determine electronic state:  partially filled degenerate orbitals.
 Alpha  occ. eigenvalues --   -4.40955  -3.03894  -2.96434  -2.96434  -1.09432
 Alpha  occ. eigenvalues --   -0.70931  -0.70931  -0.69431  -0.67752  -0.62651
 Alpha  occ. eigenvalues --   -0.34408  -0.34298  -0.34298
 Alpha virt. eigenvalues --   -0.06032   0.01514   0.01514   0.01601   0.04007
 Alpha virt. eigenvalues --    0.06694   0.06694   0.08733   0.09399   0.09430
 Alpha virt. eigenvalues --    0.10461   0.10461   0.13420   0.14749   0.23872

 Mulliken charges and spin densities:
               1          2
     1  Fe   1.109305   3.927015
     2  O   -1.109305   0.072985
 Sum of Mulliken charges =  -0.00000   4.00000

 Dipole moment (field-independent basis, Debye):
    X=              0.0000    Y=              0.0000    Z=              9.4694  Tot=              9.4694
 Quadrupole moment (field-independent basis, Debye-Ang):
   XX=            -18.7387   YY=            -18.7387   ZZ=            -23.7674
   XY=              0.0000   XZ=              0.0000   YZ=              0.0000

 \\#P ROCCSD(T)=(MaxCyc=150, Full)/Gen SCF=(maxcycle=400) Pseudo=Read I
 87402\CCSD=-139.7753103\CCSD(T)=-139.8228811\RMSD=3.555e-09\PG=C*V [C*
 Normal termination of Gaussian 16 at Sat Mar 24 01:06:44 2018.
