 Gaussian 16, Revision A.03,
 Gaussian 16:  ES64L-G16RevA.03 25-Dec-2016

 ----------------------------------------------------------------------
 #P ROCCSD(T)=(maxcyc=150, Full, SaveAmplitudes, ReadAmplitudes)/Gen 5d
  7f SCF=(maxcycles=300) Integral(NoXCTest) MaxDisk=500GB Pop=Regular P
 seudo=Read Guess=Read
 ----------------------------------------------------------------------

 ---
 ScO
 ---
 Symbolic Z-matrix:
 Charge =  0 Multiplicity = 2

                         Standard orientation:
 ---------------------------------------------------------------------
 Center     Atomic      Atomic             Coordinates (Angstroms)
 Number     Number       Type             X           Y           Z
 ---------------------------------------------------------------------
      1         21           0        0.000000    0.000000    0.358621
      2          8           0        0.000000    0.000000   -0.941379
 ---------------------------------------------------------------------

 SCF Done:  E(ROHF) =  -61.7089004046     A.U. after   15 cycles
 E2 =    -0.6933422692D+00 EUMP2 =    -0.62402242673825D+02
 CCSD(T)
 CCSD(T)= -0.62428213179D+02

 The electronic state is 2-SG.
 Alpha  occ. eigenvalues --   -2.58694  -1.77007  -1.53213  -1.53213  -1.06688
 Alpha  occ. eigenvalues --   -0.58018  -0.58018  -0.47250  -0.19360
 Alpha virt. eigenvalues --    0.00952   0.00952   0.01879   0.02302   0.02810
 Alpha virt. eigenvalues --    0.02810   0.02893   0.02893   0.02893   0.04183
 Alpha virt. eigenvalues --    0.04183   0.06555   0.08064   0.08064   0.08544

 Mulliken charges and spin densities:
               1          2
     1  Sc   1.000232   1.022970
     2  O   -1.000232  -0.022970
 Sum of Mulliken charges =   0.00000   1.00000

 Dipole moment (field-independent basis, Debye):
    X=              0.0000    Y=              0.0000    Z=              0.1330  Tot=              0.1330
 Quadrupole moment (field-independent basis, Debye-Ang):
   XX=            -22.8538   YY=            -22.8538   ZZ=            -29.6348
   XY=              0.0000   XZ=              0.0000   YZ=              0.0000

 \\#P ROCCSD(T)=(maxcyc=150, Full, SaveAmplitudes, ReadAmplitudes)/Gen
 089004\PMP2-0=-62.4022427\CCSD=-62.3968336\CCSD(T)=-62.4282132\RMSD=1.
 Normal termination of Gaussian 16 at Tue Feb 20 23:35:07 2018.
