 Gaussian 16, Revision A.03,
 Gaussian 16:  ES64L-G16RevA.03 25-Dec-2016

 ----------------------------------------------------------------------
 #P ROCCSD(T)=(MaxCyc=150, Window=(7,0))/Gen SCF=(maxcycle=400) Integra
 l(DKHSO, NoXCTest) Pop=Regular MaxDisk=500GB Guess=Read IOp(5/15=2)
 ----------------------------------------------------------------------

 ---
 NiO
 ---
 Symbolic Z-matrix:
 Charge =  0 Multiplicity = 3

                         Standard orientation:
 ---------------------------------------------------------------------
 Center     Atomic      Atomic             Coordinates (Angstroms)
 Number     Number       Type             X           Y           Z
 ---------------------------------------------------------------------
      1         28           0        0.000000    0.000000    0.400000
      2          8           0        0.000000    0.000000   -1.400000
 ---------------------------------------------------------------------

 SCF Done:  E(ROHF) =  -1593.91267988     A.U. after   23 cycles
 E2 =    -0.1199704673D+01 EUMP2 =    -0.15951123845516D+04
 CCSD(T)
 CCSD(T)= -0.15951302072D+04

 The electronic state is 3-SG.
 Alpha  occ. eigenvalues -- -308.83871 -38.70441 -33.18570 -33.14970 -33.14970
 Alpha  occ. eigenvalues --  -20.50270  -5.14062  -3.51300  -3.43405  -3.43405
 Alpha  occ. eigenvalues --   -1.13411  -0.81345  -0.81345  -0.75687  -0.72649
 Alpha  occ. eigenvalues --   -0.72649  -0.38865  -0.38865  -0.35653
 Alpha virt. eigenvalues --   -0.05573   0.01726   0.01726   0.01857   0.03859
 Alpha virt. eigenvalues --    0.06619   0.06619   0.07632   0.07927   0.07927
 Alpha virt. eigenvalues --    0.08835   0.08835   0.12448   0.14902   0.21612

 Mulliken charges and spin densities:
               1          2
     1  Ni   0.935033   1.954344
     2  O   -0.935033   0.045656
 Sum of Mulliken charges =  -0.00000   2.00000

 Dipole moment (field-independent basis, Debye):
    X=              0.0000    Y=              0.0000    Z=              7.9216  Tot=              7.9216
 Quadrupole moment (field-independent basis, Debye-Ang):
   XX=            -19.1088   YY=            -19.1088   ZZ=            -22.5976
   XY=              0.0000   XZ=              0.0000   YZ=              0.0000

 1\1\GINC-C477-004\SP\ROCCSD(T)-RW\Gen\Ni1O1(3)\GWANG18\18-Mar-2018\0\\
 #P ROCCSD(T)=(MaxCyc=150, Window=(7,0))/Gen SCF=(maxcycle=400) Integra
 l(DKHSO, NoXCTest) Pop=Regular MaxDisk=500GB Guess=Read IOp(5/15=2)\\N
 iO\\0,3\Ni,0,0.,0.,0.\O,0,0.,0.,1.8\\Version=ES64L-G16RevA.03\State=3-
 SG\HF=-1593.9126799\MP2=-1595.1123846\MP3=-1594.9845893\PUHF=-1593.912
 6799\PMP2-0=-1595.1123846\MP4SDQ=-1595.0659281\CCSD=-1595.0604459\CCSD
 (T)=-1595.1302072\RMSD=5.525e-09\PG=C*V [C*(O1Ni1)]\\@

 Normal termination of Gaussian 16 at Sun Mar 18 04:11:23 2018.
