 Gaussian 16, Revision A.03,
 Gaussian 16:  ES64L-G16RevA.03 25-Dec-2016

 ----------------------------------------------------------------------
 #P ROCCSD(T)=(MaxCyc=150, Full)/Gen SCF=(maxcycle=400, vshift=200) Pse
 udo=Read Integral(NoXCTest) Pop=Regular MaxDisk=500GB
 ----------------------------------------------------------------------

 ---
 FeO
 ---
 Symbolic Z-matrix:
 Charge =  0 Multiplicity = 5

                         Standard orientation:
 ---------------------------------------------------------------------
 Center     Atomic      Atomic             Coordinates (Angstroms)
 Number     Number       Type             X           Y           Z
 ---------------------------------------------------------------------
      1         26           0        0.000000    0.000000    0.282353
      2          8           0        0.000000    0.000000   -0.917647
 ---------------------------------------------------------------------

 SCF Done:  E(ROHF) =  -138.031355851     A.U. after   27 cycles
 E2 =    -0.1095972532D+01 EUMP2 =    -0.13912732838377D+03
 CCSD(T)
 CCSD(T)= -0.13911133622D+03

 Unable to determine electronic state:  partially filled degenerate orbitals.
 Alpha  occ. eigenvalues --   -4.41838  -3.00485  -2.91146  -2.91146  -1.32141
 Alpha  occ. eigenvalues --   -0.80526  -0.80526  -0.67063  -0.61023  -0.56754
 Alpha  occ. eigenvalues --   -0.41774  -0.41774  -0.29125
 Alpha virt. eigenvalues --    0.02247   0.02446   0.02446   0.02816   0.05935
 Alpha virt. eigenvalues --    0.06546   0.06546   0.06700   0.06710   0.08315
 Alpha virt. eigenvalues --    0.08315   0.09016   0.11062   0.16255   0.19954

 Mulliken charges and spin densities:
               1          2
     1  Fe   0.816712   3.678838
     2  O   -0.816712   0.321162
 Sum of Mulliken charges =  -0.00000   4.00000

 Dipole moment (field-independent basis, Debye):
    X=              0.0000    Y=              0.0000    Z=              1.4758  Tot=              1.4758
 Quadrupole moment (field-independent basis, Debye-Ang):
   XX=            -19.5973   YY=            -19.5973   ZZ=            -21.3526
   XY=              0.0000   XZ=              0.0000   YZ=              0.0000

 \\#P ROCCSD(T)=(MaxCyc=150, Full)/Gen SCF=(maxcycle=400, vshift=200) P
 4SDQ=-139.0922567\CCSD=-139.0665429\CCSD(T)=-139.1113362\RMSD=2.862e-0
 Normal termination of Gaussian 16 at Wed Apr 18 07:24:15 2018.
