 Gaussian 16, Revision A.03,
 Gaussian 16:  ES64L-G16RevA.03 25-Dec-2016

 ----------------------------------------------------------------------
 #P ROCCSD(T)=(MaxCyc=150, Full)/Gen SCF=(maxcycle=400, vshift=200) Pse
 udo=Read Integral(NoXCTest) Pop=Regular MaxDisk=500GB
 ----------------------------------------------------------------------

 ---
 FeO
 ---
 Symbolic Z-matrix:
 Charge =  0 Multiplicity = 5

                         Standard orientation:
 ---------------------------------------------------------------------
 Center     Atomic      Atomic             Coordinates (Angstroms)
 Number     Number       Type             X           Y           Z
 ---------------------------------------------------------------------
      1         26           0        0.000000    0.000000    0.282353
      2          8           0        0.000000    0.000000   -0.917647
 ---------------------------------------------------------------------

 SCF Done:  E(ROHF) =  -138.027255633     A.U. after   28 cycles
 E2 =    -0.1047050139D+01 EUMP2 =    -0.13907430577198D+03
 CCSD(T)
 CCSD(T)= -0.13906058193D+03

 Unable to determine electronic state:  partially filled degenerate orbitals.
 Alpha  occ. eigenvalues --   -4.41881  -3.00549  -2.91180  -2.91180  -1.32206
 Alpha  occ. eigenvalues --   -0.80532  -0.80532  -0.67085  -0.61041  -0.56767
 Alpha  occ. eigenvalues --   -0.41785  -0.41785  -0.29139
 Alpha virt. eigenvalues --    0.02371   0.02687   0.02687   0.03065   0.07445
 Alpha virt. eigenvalues --    0.08612   0.08612   0.09961   0.09992   0.10191
 Alpha virt. eigenvalues --    0.10191   0.11547   0.12091   0.18010   0.26607

 Mulliken charges and spin densities:
               1          2
     1  Fe   0.559049   3.692236
     2  O   -0.559049   0.307764
 Sum of Mulliken charges =  -0.00000   4.00000

 Dipole moment (field-independent basis, Debye):
    X=              0.0000    Y=              0.0000    Z=              1.4838  Tot=              1.4838
 Quadrupole moment (field-independent basis, Debye-Ang):
   XX=            -19.5979   YY=            -19.5979   ZZ=            -21.3743
   XY=              0.0000   XZ=              0.0000   YZ=              0.0000

 \\#P ROCCSD(T)=(MaxCyc=150, Full)/Gen SCF=(maxcycle=400, vshift=200) P
 SDQ=-139.0440438\CCSD=-139.0179239\CCSD(T)=-139.0605819\RMSD=3.546e-09
 Normal termination of Gaussian 16 at Wed Apr 18 05:30:57 2018.
