 Gaussian 16, Revision A.03,
 Gaussian 16:  ES64L-G16RevA.03 25-Dec-2016

 ----------------------------------------------------------------------
 #P ROCCSD(T)=(maxcyc=150, Full, SaveAmplitudes, ReadAmplitudes)/Gen 5d
  7f SCF=(maxcycles=300, VShift=400) Integral(NoXCTest) MaxDisk=500GB P
 op=Full Pseudo=Read Guess=Read IOp(5/15=2)
 ----------------------------------------------------------------------

 ---
 MnO
 ---
 Symbolic Z-matrix:
 Charge =  0 Multiplicity = 6

                         Standard orientation:
 ---------------------------------------------------------------------
 Center     Atomic      Atomic             Coordinates (Angstroms)
 Number     Number       Type             X           Y           Z
 ---------------------------------------------------------------------
      1         25           0        0.000000    0.000000    0.412121
      2          8           0        0.000000    0.000000   -1.287879
 ---------------------------------------------------------------------

 SCF Done:  E(ROHF) =  -119.359216265     A.U. after   54 cycles
 E2 =    -0.8996283396D+00 EUMP2 =    -0.12025884460499D+03
 CCSD(T)
 CCSD(T)= -0.12028952168D+03

 The electronic state is 6-SG.
 Alpha  occ. eigenvalues --   -4.12901  -2.75808  -2.75808  -2.75272  -1.11858
 Alpha  occ. eigenvalues --   -0.65158  -0.65158  -0.64416  -0.64416  -0.60480
 Alpha  occ. eigenvalues --   -0.33809  -0.33809  -0.33716
 Alpha virt. eigenvalues --   -0.04606   0.01568   0.01568   0.01841   0.03843
 Alpha virt. eigenvalues --    0.06699   0.06699   0.08195   0.08434   0.08434
 Alpha virt. eigenvalues --    0.09622   0.09622   0.13210   0.14052   0.23069

 Mulliken charges and spin densities:
               1          2
     1  Mn   1.153864   4.895381
     2  O   -1.153864   0.104619
 Sum of Mulliken charges =  -0.00000   5.00000

 Dipole moment (field-independent basis, Debye):
    X=              0.0000    Y=              0.0000    Z=              9.1679  Tot=              9.1679
 Quadrupole moment (field-independent basis, Debye-Ang):
   XX=            -18.7406   YY=            -18.7406   ZZ=            -23.7925
   XY=              0.0000   XZ=              0.0000   YZ=              0.0000

 \\#P ROCCSD(T)=(maxcyc=150, Full, SaveAmplitudes, ReadAmplitudes)/Gen
 4SDQ=-120.2567923\CCSD=-120.2480614\CCSD(T)=-120.2895217\RMSD=9.559e-0
 Normal termination of Gaussian 16 at Wed Apr  4 02:25:48 2018.
