 Gaussian 16, Revision A.03,
 Gaussian 16:  ES64L-G16RevA.03 25-Dec-2016

 ----------------------------------------------------------------------
 #P ROCCSD(T)=(maxcyc=150, Full)/Gen 5d 7f SCF=(maxcycles=300) Integral
 (NoXCTest) MaxDisk=500GB Pop=Regular Pseudo=Read Guess=Read
 ----------------------------------------------------------------------

 ---
 CrH
 ---
 Symbolic Z-matrix:
 Charge =  0 Multiplicity = 6

                         Standard orientation:
 ---------------------------------------------------------------------
 Center     Atomic      Atomic             Coordinates (Angstroms)
 Number     Number       Type             X           Y           Z
 ---------------------------------------------------------------------
      1         24           0        0.000000    0.000000    0.068000
      2          1           0        0.000000    0.000000   -1.632000
 ---------------------------------------------------------------------

 SCF Done:  E(ROHF) =  -86.6952574893     A.U. after   23 cycles
 E2 =    -0.5681103076D+00 EUMP2 =    -0.87263367796891D+02
 CCSD(T)
 CCSD(T)= -0.87308665555D+02

 The electronic state is 6-SG.
 Alpha  occ. eigenvalues --   -3.72175  -2.47673  -2.47673  -2.43066  -0.54521
 Alpha  occ. eigenvalues --   -0.54521  -0.51329  -0.51329  -0.40623  -0.26062
 Alpha virt. eigenvalues --    0.01226   0.01226   0.01848   0.02226   0.04361
 Alpha virt. eigenvalues --    0.04815   0.04815   0.04946   0.04946   0.05226
 Alpha virt. eigenvalues --    0.05226   0.06277   0.08522   0.11507   0.15154

 Mulliken charges and spin densities:
               1          2
     1  Cr   0.360431   4.974103
     2  H   -0.360431   0.025897
 Sum of Mulliken charges =  -0.00000   5.00000

 Dipole moment (field-independent basis, Debye):
    X=              0.0000    Y=              0.0000    Z=              2.2113  Tot=              2.2113
 Quadrupole moment (field-independent basis, Debye-Ang):
   XX=            -17.0330   YY=            -17.0330   ZZ=            -24.1118
   XY=              0.0000   XZ=              0.0000   YZ=              0.0000

 \\#P ROCCSD(T)=(maxcyc=150, Full)/Gen 5d 7f SCF=(maxcycles=300) Integr
 7.2633678\MP4SDQ=-87.2738136\CCSD=-87.2907796\CCSD(T)=-87.3086656\RMSD
 Normal termination of Gaussian 16 at Tue Feb 13 09:02:34 2018.
