 Gaussian 16, Revision A.03,
 Gaussian 16:  ES64L-G16RevA.03 25-Dec-2016

 ----------------------------------------------------------------------
 #P ROCCSD(T)=(maxcyc=150, Full, SaveAmplitudes, ReadAmplitudes)/Gen 5d
  7f SCF=(maxcycles=300) Integral(NoXCTest) MaxDisk=500GB Pop=Regular P
 seudo=Read Guess=Read IOp(5/15=2)
 ----------------------------------------------------------------------

 ---
 MnH
 ---
 Symbolic Z-matrix:
 Charge =  0 Multiplicity = 7

                         Standard orientation:
 ---------------------------------------------------------------------
 Center     Atomic      Atomic             Coordinates (Angstroms)
 Number     Number       Type             X           Y           Z
 ---------------------------------------------------------------------
      1         25           0        0.000000    0.000000    0.038462
      2          1           0        0.000000    0.000000   -0.961538
 ---------------------------------------------------------------------

 SCF Done:  E(ROHF) =  -103.780608439     A.U. after   31 cycles
 E2 =    -0.6179628061D+00 EUMP2 =    -0.10439857124494D+03
 CCSD(T)
 CCSD(T)= -0.10441076422D+03

 The electronic state is 7-SG.
 Alpha  occ. eigenvalues --   -4.23676  -2.80612  -2.78185  -2.78185  -0.71617
 Alpha  occ. eigenvalues --   -0.64254  -0.64254  -0.63041  -0.63041  -0.39173
 Alpha  occ. eigenvalues --   -0.21424
 Alpha virt. eigenvalues --    0.01194   0.01194   0.01920   0.03499   0.05655
 Alpha virt. eigenvalues --    0.05655   0.08437   0.08469   0.08469   0.08765
 Alpha virt. eigenvalues --    0.08765   0.08856   0.14348   0.22323   0.22323

 Mulliken charges and spin densities:
               1          2
     1  Mn   0.597433   5.924196
     2  H   -0.597433   0.075804
 Sum of Mulliken charges =  -0.00000   6.00000

 Dipole moment (field-independent basis, Debye):
    X=              0.0000    Y=              0.0000    Z=             -1.2779  Tot=              1.2779
 Quadrupole moment (field-independent basis, Debye-Ang):
   XX=            -16.2367   YY=            -16.2367   ZZ=            -25.8864
   XY=              0.0000   XZ=              0.0000   YZ=              0.0000

 \\#P ROCCSD(T)=(maxcyc=150, Full, SaveAmplitudes, ReadAmplitudes)/Gen
 3931407\CCSD=-104.392631\CCSD(T)=-104.4107642\RMSD=5.980e-09\PG=C*V [C
 Normal termination of Gaussian 16 at Sun Feb 25 17:30:39 2018.
