 Gaussian 16, Revision A.03,
 Gaussian 16:  ES64L-G16RevA.03 25-Dec-2016

 ----------------------------------------------------------------------
 #P ROCCSD(T)=(MaxCyc=150, Full)/Gen SCF=(maxcycle=400) Pseudo=Read Int
 egral(NoXCTest) Pop=Regular MaxDisk=500GB Guess=Read IOp(5/15=2)
 ----------------------------------------------------------------------

 ---
 CuO
 ---
 Symbolic Z-matrix:
 Charge =  0 Multiplicity = 2

                         Standard orientation:
 ---------------------------------------------------------------------
 Center     Atomic      Atomic             Coordinates (Angstroms)
 Number     Number       Type             X           Y           Z
 ---------------------------------------------------------------------
      1         29           0        0.000000    0.000000    0.389189
      2          8           0        0.000000    0.000000   -1.410811
 ---------------------------------------------------------------------

 SCF Done:  E(ROHF) =  -211.956264568     A.U. after   17 cycles
 E2 =    -0.1269765036D+01 EUMP2 =    -0.21322602960427D+03
 CCSD(T)
 CCSD(T)= -0.21316182487D+03

 Unable to determine electronic state:  an orbital has unidentified symmetry.
 Alpha  occ. eigenvalues --   -5.25897  -3.46308  -3.46152  -3.45955  -1.22902
 Alpha  occ. eigenvalues --   -0.56406  -0.53749  -0.53287  -0.51922  -0.51921
 Alpha  occ. eigenvalues --   -0.48067  -0.41578  -0.40614
 Alpha virt. eigenvalues --   -0.01458   0.02792   0.02948   0.03916   0.04606
 Alpha virt. eigenvalues --    0.10218   0.10527   0.13542   0.19368   0.19410
 Alpha virt. eigenvalues --    0.19471   0.20479   0.21607   0.22685   0.26001

 Mulliken charges and spin densities:
               1          2
     1  Cu   0.809733   0.014041
     2  O   -0.809733   0.985959
 Sum of Mulliken charges =   0.00000   1.00000

 Dipole moment (field-independent basis, Debye):
    X=              0.0000    Y=              0.0000    Z=              6.0006  Tot=              6.0006
 Quadrupole moment (field-independent basis, Debye-Ang):
   XX=            -15.4787   YY=            -17.0382   ZZ=            -20.8727
   XY=              0.0000   XZ=              0.0000   YZ=              0.0000

 \\#P ROCCSD(T)=(MaxCyc=150, Full)/Gen SCF=(maxcycle=400) Pseudo=Read I
 .2260296\MP4SDQ=-213.1892016\CCSD=-213.1172058\CCSD(T)=-213.1618249\RM
 Normal termination of Gaussian 16 at Mon Mar 26 18:31:56 2018.
