 Gaussian 16, Revision A.03,
 Gaussian 16:  ES64L-G16RevA.03 25-Dec-2016

 ----------------------------------------------------------------------
 #P ROCCSD(T)=(MaxCyc=150, Full)/Gen SCF=(maxcycle=400) Pseudo=Read Int
 egral(NoXCTest) Pop=Regular MaxDisk=500GB Guess=Read IOp(5/15=2)
 ----------------------------------------------------------------------

 ---
 CuO
 ---
 Symbolic Z-matrix:
 Charge =  0 Multiplicity = 2

                         Standard orientation:
 ---------------------------------------------------------------------
 Center     Atomic      Atomic             Coordinates (Angstroms)
 Number     Number       Type             X           Y           Z
 ---------------------------------------------------------------------
      1         29           0        0.000000    0.000000    0.389189
      2          8           0        0.000000    0.000000   -1.410811
 ---------------------------------------------------------------------

 SCF Done:  E(ROHF) =  -211.959876341     A.U. after   19 cycles
 E2 =    -0.1333542128D+01 EUMP2 =    -0.21329341846886D+03
 CCSD(T)
 CCSD(T)= -0.21322641216D+03

 Unable to determine electronic state:  an orbital has unidentified symmetry.
 Alpha  occ. eigenvalues --   -5.25892  -3.46290  -3.46139  -3.45945  -1.22842
 Alpha  occ. eigenvalues --   -0.56410  -0.53747  -0.53273  -0.51921  -0.51920
 Alpha  occ. eigenvalues --   -0.48069  -0.41583  -0.40606
 Alpha virt. eigenvalues --   -0.01457   0.02492   0.02619   0.03451   0.04387
 Alpha virt. eigenvalues --    0.08749   0.08988   0.11564   0.13279   0.13284
 Alpha virt. eigenvalues --    0.14487   0.14577   0.15045   0.18899   0.21298

 Mulliken charges and spin densities:
               1          2
     1  Cu   0.757546   0.014069
     2  O   -0.757546   0.985931
 Sum of Mulliken charges =  -0.00000   1.00000

 Dipole moment (field-independent basis, Debye):
    X=              0.0000    Y=              0.0000    Z=              5.9858  Tot=              5.9858
 Quadrupole moment (field-independent basis, Debye-Ang):
   XX=            -15.4698   YY=            -17.0116   ZZ=            -20.8850
   XY=              0.0000   XZ=              0.0000   YZ=              0.0000

 \\#P ROCCSD(T)=(MaxCyc=150, Full)/Gen SCF=(maxcycle=400) Pseudo=Read I
 .2934185\MP4SDQ=-213.2506842\CCSD=-213.1793042\CCSD(T)=-213.2264122\RM
 Normal termination of Gaussian 16 at Mon Mar 26 21:02:30 2018.
