 Gaussian 16, Revision A.03,
 Gaussian 16:  ES64L-G16RevA.03 25-Dec-2016

 ----------------------------------------------------------------------
 #P ROCCSD(T)=(maxcyc=150, Full, SaveAmplitudes, ReadAmplitudes)/Gen 5d
  7f SCF=(maxcycles=300) Integral(NoXCTest) MaxDisk=500GB Pop=Regular P
 seudo=Read Guess=Read
 ----------------------------------------------------------------------

 ---
 TiO
 ---
 Symbolic Z-matrix:
 Charge =  0 Multiplicity = 3

                         Standard orientation:
 ---------------------------------------------------------------------
 Center     Atomic      Atomic             Coordinates (Angstroms)
 Number     Number       Type             X           Y           Z
 ---------------------------------------------------------------------
      1         22           0        0.000000    0.000000    0.346667
      2          8           0        0.000000    0.000000   -0.953333
 ---------------------------------------------------------------------

 SCF Done:  E(ROHF) =  -73.2677854458     A.U. after   22 cycles
 E2 =    -0.7659459719D+00 EUMP2 =    -0.74033731417665D+02
 CCSD(T)
 CCSD(T)= -0.74056260935D+02

 Unable to determine electronic state:  an orbital has unidentified symmetry.
 Alpha  occ. eigenvalues --   -2.94396  -1.96023  -1.82521  -1.82521  -1.14634
 Alpha  occ. eigenvalues --   -0.59236  -0.59236  -0.52537  -0.35858  -0.21601
 Alpha virt. eigenvalues --    0.01133   0.01133   0.02111   0.02343   0.03784
 Alpha virt. eigenvalues --    0.03784   0.03805   0.03842   0.03858   0.04634
 Alpha virt. eigenvalues --    0.04634   0.07225   0.10378   0.10649   0.11225

 Mulliken charges and spin densities:
               1          2
     1  Ti   0.852708   1.983216
     2  O   -0.852708   0.016784
 Sum of Mulliken charges =  -0.00000   2.00000

 Dipole moment (field-independent basis, Debye):
    X=              0.0000    Y=              0.0000    Z=              0.6056  Tot=              0.6056
 Quadrupole moment (field-independent basis, Debye-Ang):
   XX=            -22.0303   YY=            -22.0303   ZZ=            -27.1161
   XY=              0.0000   XZ=              0.0000   YZ=              0.0000

 \\#P ROCCSD(T)=(maxcyc=150, Full, SaveAmplitudes, ReadAmplitudes)/Gen
 -0=-74.0337314\CCSD=-74.0200602\CCSD(T)=-74.0562609\RMSD=2.102e-09\PG=
 Normal termination of Gaussian 16 at Sat Mar 10 02:10:15 2018.
