 Gaussian 16, Revision A.03,
 Gaussian 16:  ES64L-G16RevA.03 25-Dec-2016

 ----------------------------------------------------------------------
 #P ROCCSD(T)=(maxcyc=150, Full, SaveAmplitudes, ReadAmplitudes)/Gen 5d
  7f SCF=(maxcycles=300) Integral(NoXCTest) MaxDisk=500GB Pop=Regular P
 seudo=Read Guess=Read
 ----------------------------------------------------------------------

 ---
 TiO
 ---
 Symbolic Z-matrix:
 Charge =  0 Multiplicity = 3

                         Standard orientation:
 ---------------------------------------------------------------------
 Center     Atomic      Atomic             Coordinates (Angstroms)
 Number     Number       Type             X           Y           Z
 ---------------------------------------------------------------------
      1         22           0        0.000000    0.000000    0.426667
      2          8           0        0.000000    0.000000   -1.173333
 ---------------------------------------------------------------------

 SCF Done:  E(ROHF) =  -73.4005011475     A.U. after   19 cycles
 E2 =    -0.7748760257D+00 EUMP2 =    -0.74175377173249D+02
 CCSD(T)
 CCSD(T)= -0.74202603533D+02

 Unable to determine electronic state:  an orbital has unidentified symmetry.
 Alpha  occ. eigenvalues --   -3.00992  -1.91016  -1.91016  -1.89946  -1.16614
 Alpha  occ. eigenvalues --   -0.46796  -0.45544  -0.45221  -0.45221  -0.26216
 Alpha virt. eigenvalues --    0.00355   0.00355   0.01467   0.02340   0.03654
 Alpha virt. eigenvalues --    0.03654   0.03697   0.03769   0.04170   0.04170
 Alpha virt. eigenvalues --    0.04193   0.05310   0.09096   0.10363   0.11566

 Mulliken charges and spin densities:
               1          2
     1  Ti   1.018537   1.970137
     2  O   -1.018537   0.029863
 Sum of Mulliken charges =  -0.00000   2.00000

 Dipole moment (field-independent basis, Debye):
    X=              0.0000    Y=              0.0000    Z=              4.1201  Tot=              4.1201
 Quadrupole moment (field-independent basis, Debye-Ang):
   XX=            -21.4977   YY=            -21.4977   ZZ=            -29.1411
   XY=              0.0000   XZ=              0.0000   YZ=              0.0000

 \\#P ROCCSD(T)=(maxcyc=150, Full, SaveAmplitudes, ReadAmplitudes)/Gen
 -0=-74.1753772\CCSD=-74.1564602\CCSD(T)=-74.2026035\RMSD=2.011e-09\PG=
 Normal termination of Gaussian 16 at Fri Mar  9 17:00:02 2018.
