 Gaussian 16, Revision A.03,
 Gaussian 16:  ES64L-G16RevA.03 25-Dec-2016

 ----------------------------------------------------------------------
 #P ROCCSD(T)=(maxcyc=150, Full, SaveAmplitudes, ReadAmplitudes)/Gen 5d
  7f SCF=(maxcycles=300) Integral(NoXCTest) MaxDisk=500GB Pop=Regular P
 seudo=Read Guess=Read
 ----------------------------------------------------------------------

 ---
 MnH
 ---
 Symbolic Z-matrix:
 Charge =  0 Multiplicity = 7

                         Standard orientation:
 ---------------------------------------------------------------------
 Center     Atomic      Atomic             Coordinates (Angstroms)
 Number     Number       Type             X           Y           Z
 ---------------------------------------------------------------------
      1         25           0        0.000000    0.000000    0.050000
      2          1           0        0.000000    0.000000   -1.250000
 ---------------------------------------------------------------------

 SCF Done:  E(ROHF) =  -103.998447158     A.U. after   23 cycles
 E2 =    -0.6136447003D+00 EUMP2 =    -0.10461209185869D+03
 CCSD(T)
 CCSD(T)= -0.10463176124D+03

 The electronic state is 7-SG.
 Alpha  occ. eigenvalues --   -4.23446  -2.79226  -2.78754  -2.78754  -0.66644
 Alpha  occ. eigenvalues --   -0.63573  -0.63573  -0.63364  -0.63364  -0.41677
 Alpha  occ. eigenvalues --   -0.24303
 Alpha virt. eigenvalues --    0.01309   0.01309   0.01958   0.03130   0.05150
 Alpha virt. eigenvalues --    0.05150   0.05715   0.05831   0.05831   0.06171
 Alpha virt. eigenvalues --    0.06171   0.08359   0.13984   0.15104   0.17892

 Mulliken charges and spin densities:
               1          2
     1  Mn   0.547848   5.920851
     2  H   -0.547848   0.079149
 Sum of Mulliken charges =  -0.00000   6.00000

 Dipole moment (field-independent basis, Debye):
    X=              0.0000    Y=              0.0000    Z=             -0.0323  Tot=              0.0323
 Quadrupole moment (field-independent basis, Debye-Ang):
   XX=            -15.9842   YY=            -15.9842   ZZ=            -25.3823
   XY=              0.0000   XZ=              0.0000   YZ=              0.0000

 \\#P ROCCSD(T)=(maxcyc=150, Full, SaveAmplitudes, ReadAmplitudes)/Gen
 3.9984472\PMP2-0=-104.6120919\CCSD=-104.6142678\CCSD(T)=-104.6317612\R
 Normal termination of Gaussian 16 at Mon Feb 26 01:36:06 2018.
