 Gaussian 16, Revision A.03,
 Gaussian 16:  ES64L-G16RevA.03 25-Dec-2016

 ----------------------------------------------------------------------
 #P ROCCSD(T)=(maxcyc=150, Full)/Gen 5d 7f SCF=(maxcycles=300) Integral
 (DKHSO) MaxDisk=500GB Pop=Regular Guess=Read
 ----------------------------------------------------------------------

 --
 Sc
 --
 Symbolic Z-matrix:
 Charge =  0 Multiplicity = 2

                         Standard orientation:
 ---------------------------------------------------------------------
 Center     Atomic      Atomic             Coordinates (Angstroms)
 Number     Number       Type             X           Y           Z
 ---------------------------------------------------------------------
      1         21           0        0.000000    0.000000    0.000000
 ---------------------------------------------------------------------

 SCF Done:  E(ROHF) =  -763.289845598     A.U. after    3 cycles
 E2 =    -0.7586799302D+00 EUMP2 =    -0.76404852552800D+03
 CCSD(T)
 CCSD(T)= -0.76407494617D+03

 Unable to determine electronic state:  an orbital has unidentified symmetry.
 Alpha  occ. eigenvalues -- -166.82354 -19.26664 -15.69101 -15.68925 -15.68925
 Alpha  occ. eigenvalues --   -2.61754  -1.61970  -1.61970  -1.58598  -0.33963
 Alpha  occ. eigenvalues --   -0.21574
 Alpha virt. eigenvalues --    0.01181   0.01271   0.01271   0.02000   0.02626
 Alpha virt. eigenvalues --    0.02629   0.02629   0.02635   0.02651   0.04266
 Alpha virt. eigenvalues --    0.04386   0.04386   0.07425   0.07500   0.07500

 Mulliken charges and spin densities:
               1          2
     1  Sc  -0.000000   1.000000
 Sum of Mulliken charges =  -0.00000   1.00000

 Dipole moment (field-independent basis, Debye):
    X=              0.0000    Y=              0.0000    Z=             -0.0000  Tot=              0.0000
 Quadrupole moment (field-independent basis, Debye-Ang):
   XX=            -23.7625   YY=            -23.4526   ZZ=            -23.7625
   XY=             -0.0000   XZ=             -0.0000   YZ=              0.0000

 1\1\GINC-C506-011\SP\ROCCSD(T)-Full\Gen\Sc1(2)\AANNABE\15-Feb-2018\0\\
 #P ROCCSD(T)=(maxcyc=150, Full)/Gen 5d 7f SCF=(maxcycles=300) Integral
 (DKHSO) MaxDisk=500GB Pop=Regular Guess=Read\\Sc\\0,2\Sc,0,0.,0.,0.\\V
 ersion=ES64L-G16RevA.03\HF=-763.2898456\MP2=-764.0485255\MP3=-764.0586
 832\PUHF=-763.2898456\PMP2-0=-764.0485255\MP4SDQ=-764.0582723\CCSD=-76
 4.0584986\CCSD(T)=-764.0749462\RMSD=1.368e-09\PG=OH [O(Sc1)]\\@

 Normal termination of Gaussian 16 at Thu Feb 15 19:25:31 2018.
