 Gaussian 16, Revision A.03,
 Gaussian 16:  ES64L-G16RevA.03 25-Dec-2016

 ----------------------------------------------------------------------
 #P ROCCSD(T)=(maxcyc=150, Full, SaveAmplitudes, ReadAmplitudes)/Gen 5d
  7f SCF=(maxcycles=300, VShift=400) Integral(NoXCTest) MaxDisk=500GB P
 op=Full Pseudo=Read Guess=Read IOp(5/15=2)
 ----------------------------------------------------------------------

 ---
 CrO
 ---
 Symbolic Z-matrix:
 Charge =  0 Multiplicity = 5

                         Standard orientation:
 ---------------------------------------------------------------------
 Center     Atomic      Atomic             Coordinates (Angstroms)
 Number     Number       Type             X           Y           Z
 ---------------------------------------------------------------------
      1         24           0        0.000000    0.000000    0.300000
      2          8           0        0.000000    0.000000   -0.900000
 ---------------------------------------------------------------------

 SCF Done:  E(ROHF) =  -101.243562648     A.U. after   67 cycles
 E2 =    -0.8825868761D+00 EUMP2 =    -0.10212614952394D+03
 CCSD(T)
 CCSD(T)= -0.10213235076D+03

 Unable to determine electronic state:  an orbital has unidentified symmetry.
 Alpha  occ. eigenvalues --   -3.73955  -2.48717  -2.43732  -2.39991  -1.26458
 Alpha  occ. eigenvalues --   -0.75017  -0.68996  -0.65534  -0.50320  -0.50232
 Alpha  occ. eigenvalues --   -0.30113  -0.26393
 Alpha virt. eigenvalues --    0.01476   0.02449   0.02796   0.02807   0.05458
 Alpha virt. eigenvalues --    0.07043   0.07669   0.07743   0.07797   0.07800
 Alpha virt. eigenvalues --    0.09675   0.09987   0.12189   0.17909   0.20813

 Mulliken charges and spin densities:
               1          2
     1  Cr   0.828818   3.721836
     2  O   -0.828818   0.278164
 Sum of Mulliken charges =  -0.00000   4.00000

 Dipole moment (field-independent basis, Debye):
    X=              0.0000    Y=              0.0000    Z=              0.2831  Tot=              0.2831
 Quadrupole moment (field-independent basis, Debye-Ang):
   XX=            -22.8580   YY=            -19.9884   ZZ=            -22.8208
   XY=              0.0000   XZ=              0.0000   YZ=              0.0000

 \\#P ROCCSD(T)=(maxcyc=150, Full, SaveAmplitudes, ReadAmplitudes)/Gen
 07865\CCSD=-102.0934019\CCSD(T)=-102.1323508\RMSD=9.846e-09\PG=C*V [C*
 Normal termination of Gaussian 16 at Thu Apr  5 19:38:40 2018.
