 Gaussian 16, Revision A.03,
 Gaussian 16:  ES64L-G16RevA.03 25-Dec-2016

 ----------------------------------------------------------------------
 #P ROCCSD(T)=(maxcyc=150, Full)/Gen 5d 7f SCF=(maxcycles=300, NoVarAcc
 , VShift=300) MaxDisk=100GB Pop=Regular Pseudo=Read Guess=Read
 ----------------------------------------------------------------------

 --
 Ti
 --
 Symbolic Z-matrix:
 Charge =  0 Multiplicity = 3

                         Standard orientation:
 ---------------------------------------------------------------------
 Center     Atomic      Atomic             Coordinates (Angstroms)
 Number     Number       Type             X           Y           Z
 ---------------------------------------------------------------------
      1         22           0        0.000000    0.000000    0.000000
 ---------------------------------------------------------------------

 SCF Done:  E(ROHF) =  -57.7383473508     A.U. after   21 cycles
 E2 =    -0.4377530296D+00 EUMP2 =    -0.58176100380470D+02
 CCSD(T)
 CCSD(T)= -0.58212578292D+02

 Unable to determine electronic state:  an orbital has unidentified symmetry.
 Alpha  occ. eigenvalues --   -3.02715  -1.88033  -1.88033  -1.88033  -0.43476
 Alpha  occ. eigenvalues --   -0.43476  -0.23021
 Alpha virt. eigenvalues --    0.01362   0.01362   0.01362   0.02238   0.03898
 Alpha virt. eigenvalues --    0.03898   0.03898   0.03945   0.03945   0.04784
 Alpha virt. eigenvalues --    0.04784   0.04784   0.10361   0.10361   0.10361

 Mulliken charges and spin densities:
               1          2
     1  Ti  -0.000000   2.000000
 Sum of Mulliken charges =  -0.00000   2.00000

 Dipole moment (field-independent basis, Debye):
    X=             -0.0000    Y=             -0.0000    Z=             -0.0000  Tot=              0.0000
 Quadrupole moment (field-independent basis, Debye-Ang):
   XX=            -21.9058   YY=            -21.9058   ZZ=            -21.9058
   XY=              0.0000   XZ=              0.0000   YZ=              0.0000

 1\1\GINC-C430-082\SP\ROCCSD(T)-Full\Gen\Ti1(3)\AANNABE\13-Mar-2018\0\\
 #P ROCCSD(T)=(maxcyc=150, Full)/Gen 5d 7f SCF=(maxcycles=300, NoVarAcc
 , VShift=300) MaxDisk=100GB Pop=Regular Pseudo=Read Guess=Read\\Ti\\0,
 3\Ti,0,0.,0.,0.\\Version=ES64L-G16RevA.03\HF=-57.7383474\MP2=-58.17610
 04\MP3=-58.1959045\PUHF=-57.7383474\PMP2-0=-58.1761004\MP4SDQ=-58.1956
 512\CCSD=-58.1960131\CCSD(T)=-58.2125783\RMSD=9.631e-09\PG=OH [O(Ti1)]
 \\@

 Normal termination of Gaussian 16 at Tue Mar 13 12:41:52 2018.
