 Gaussian 16, Revision A.03,
 Gaussian 16:  ES64L-G16RevA.03 25-Dec-2016

 ----------------------------------------------------------------------
 #P ROCCSD(T)=(MaxCyc=150, Full)/Gen SCF=(maxcycle=400, vshift=200) Pse
 udo=Read Integral(NoXCTest) Pop=Regular MaxDisk=500GB Guess=Read IOp(5
 /15=2)
 ----------------------------------------------------------------------

 ---
 CoH
 ---
 Symbolic Z-matrix:
 Charge =  0 Multiplicity = 3

                         Standard orientation:
 ---------------------------------------------------------------------
 Center     Atomic      Atomic             Coordinates (Angstroms)
 Number     Number       Type             X           Y           Z
 ---------------------------------------------------------------------
      1         27           0        0.000000    0.000000    0.046429
      2          1           0        0.000000    0.000000   -1.253571
 ---------------------------------------------------------------------

 SCF Done:  E(ROHF) =  -144.776904930     A.U. after   27 cycles
 E2 =    -0.9414168608D+00 EUMP2 =    -0.14571832179123D+03
 CCSD(T)
 CCSD(T)= -0.14569036252D+03

 Unable to determine electronic state:  partially filled degenerate orbitals.
 Alpha  occ. eigenvalues --   -4.54040  -2.95881  -2.95642  -2.95641  -0.50610
 Alpha  occ. eigenvalues --   -0.48875  -0.44731  -0.44731  -0.44379  -0.31796
 Alpha virt. eigenvalues --    0.00425   0.02391   0.02391   0.02602   0.04593
 Alpha virt. eigenvalues --    0.06483   0.06674   0.06684   0.06871   0.06871
 Alpha virt. eigenvalues --    0.08198   0.08198   0.08578   0.14831   0.18947

 Mulliken charges and spin densities:
               1          2
     1  Co   0.365313   1.968671
     2  H   -0.365313   0.031329
 Sum of Mulliken charges =  -0.00000   2.00000

 Dipole moment (field-independent basis, Debye):
    X=              0.0000    Y=              0.0000    Z=              3.8516  Tot=              3.8516
 Quadrupole moment (field-independent basis, Debye-Ang):
   XX=            -13.9596   YY=            -13.9595   ZZ=            -16.6482
   XY=              0.0000   XZ=              0.0000   YZ=              0.0000

 \\#P ROCCSD(T)=(MaxCyc=150, Full)/Gen SCF=(maxcycle=400, vshift=200) P
 \PMP2-0=-145.7183218\MP4SDQ=-145.6834215\CCSD=-145.6564307\CCSD(T)=-14
 Normal termination of Gaussian 16 at Thu May  3 18:13:42 2018.
