 Gaussian 16, Revision A.03,
 Gaussian 16:  ES64L-G16RevA.03 25-Dec-2016

 ----------------------------------------------------------------------
 #P ROCCSD(T)=(MaxCyc=150, Full)/Gen SCF=(maxcycle=400, vshift=200) Pse
 udo=Read Integral(NoXCTest) Pop=Regular MaxDisk=500GB Guess=Read IOp(5
 /15=2)
 ----------------------------------------------------------------------

 ---
 CoH
 ---
 Symbolic Z-matrix:
 Charge =  0 Multiplicity = 3

                         Standard orientation:
 ---------------------------------------------------------------------
 Center     Atomic      Atomic             Coordinates (Angstroms)
 Number     Number       Type             X           Y           Z
 ---------------------------------------------------------------------
      1         27           0        0.000000    0.000000    0.046429
      2          1           0        0.000000    0.000000   -1.253571
 ---------------------------------------------------------------------

 SCF Done:  E(ROHF) =  -144.776551884     A.U. after   34 cycles
 E2 =    -0.9212601489D+00 EUMP2 =    -0.14569781203273D+03
 CCSD(T)
 CCSD(T)= -0.14567209891D+03

 Unable to determine electronic state:  partially filled degenerate orbitals.
 Alpha  occ. eigenvalues --   -4.54038  -2.95883  -2.95644  -2.95644  -0.50612
 Alpha  occ. eigenvalues --   -0.48877  -0.44725  -0.44725  -0.44374  -0.31797
 Alpha virt. eigenvalues --    0.00507   0.02471   0.02471   0.02901   0.05331
 Alpha virt. eigenvalues --    0.06998   0.07386   0.07400   0.07552   0.07552
 Alpha virt. eigenvalues --    0.08594   0.08594   0.09858   0.19131   0.20518

 Mulliken charges and spin densities:
               1          2
     1  Co   0.407712   1.991622
     2  H   -0.407712   0.008378
 Sum of Mulliken charges =  -0.00000   2.00000

 Dipole moment (field-independent basis, Debye):
    X=              0.0000    Y=              0.0000    Z=              3.8522  Tot=              3.8522
 Quadrupole moment (field-independent basis, Debye-Ang):
   XX=            -13.9603   YY=            -13.9603   ZZ=            -16.6477
   XY=              0.0000   XZ=              0.0000   YZ=              0.0000

 \\#P ROCCSD(T)=(MaxCyc=150, Full)/Gen SCF=(maxcycle=400, vshift=200) P
 PMP2-0=-145.697812\MP4SDQ=-145.6661391\CCSD=-145.6387772\CCSD(T)=-145.
 Normal termination of Gaussian 16 at Thu May  3 15:53:07 2018.
