 Gaussian 16, Revision A.03,
 Gaussian 16:  ES64L-G16RevA.03 25-Dec-2016

 ----------------------------------------------------------------------
 #P ROCCSD(T)=(MaxCyc=150, Full)/Gen SCF=(maxcycle=400, vshift=200) Pse
 udo=Read Integral(NoXCTest) Pop=Regular MaxDisk=500GB Guess=Read IOp(5
 /15=2)
 ----------------------------------------------------------------------

 ---
 CoH
 ---
 Symbolic Z-matrix:
 Charge =  0 Multiplicity = 3

                         Standard orientation:
 ---------------------------------------------------------------------
 Center     Atomic      Atomic             Coordinates (Angstroms)
 Number     Number       Type             X           Y           Z
 ---------------------------------------------------------------------
      1         27           0        0.000000    0.000000    0.046429
      2          1           0        0.000000    0.000000   -1.253571
 ---------------------------------------------------------------------

 SCF Done:  E(ROHF) =  -144.774815320     A.U. after   55 cycles
 E2 =    -0.8798435316D+00 EUMP2 =    -0.14565465885131D+03
 CCSD(T)
 CCSD(T)= -0.14563052664D+03

 Unable to determine electronic state:  partially filled degenerate orbitals.
 Alpha  occ. eigenvalues --   -4.54052  -2.95900  -2.95660  -2.95660  -0.50612
 Alpha  occ. eigenvalues --   -0.48877  -0.44720  -0.44720  -0.44371  -0.31799
 Alpha virt. eigenvalues --    0.00547   0.02714   0.02714   0.03173   0.05552
 Alpha virt. eigenvalues --    0.09412   0.09412   0.10253   0.11406   0.11447
 Alpha virt. eigenvalues --    0.11467   0.11558   0.11558   0.18901   0.26114

 Mulliken charges and spin densities:
               1          2
     1  Co   0.326680   1.967744
     2  H   -0.326680   0.032256
 Sum of Mulliken charges =  -0.00000   2.00000

 Dipole moment (field-independent basis, Debye):
    X=              0.0000    Y=              0.0000    Z=              3.8545  Tot=              3.8545
 Quadrupole moment (field-independent basis, Debye-Ang):
   XX=            -13.9710   YY=            -13.9709   ZZ=            -16.6469
   XY=              0.0000   XZ=              0.0000   YZ=              0.0000

 \\#P ROCCSD(T)=(MaxCyc=150, Full)/Gen SCF=(maxcycle=400, vshift=200) P
 MP2-0=-145.6546589\MP4SDQ=-145.6267528\CCSD=-145.5988013\CCSD(T)=-145.
 Normal termination of Gaussian 16 at Thu May  3 15:09:32 2018.
