 Gaussian 16, Revision A.03,
 Gaussian 16:  ES64L-G16RevA.03 25-Dec-2016

 ----------------------------------------------------------------------
 #P ROCCSD(T)=(maxcyc=150, Full, SaveAmplitudes, ReadAmplitudes)/Gen 5d
  7f SCF=(maxcycles=300) Integral(NoXCTest) MaxDisk=500GB Pop=Regular P
 seudo=Read Guess=Read IOp(5/15=2)
 ----------------------------------------------------------------------

 ---
 ScO
 ---
 Symbolic Z-matrix:
 Charge =  0 Multiplicity = 2

                         Standard orientation:
 ---------------------------------------------------------------------
 Center     Atomic      Atomic             Coordinates (Angstroms)
 Number     Number       Type             X           Y           Z
 ---------------------------------------------------------------------
      1         21           0        0.000000    0.000000    0.468966
      2          8           0        0.000000    0.000000   -1.231034
 ---------------------------------------------------------------------

 SCF Done:  E(ROHF) =  -62.0811385307     A.U. after   18 cycles
 E2 =    -0.6875426046D+00 EUMP2 =    -0.62768681135305D+02
 CCSD(T)
 CCSD(T)= -0.62797479137D+02

 The electronic state is 2-SG.
 Alpha  occ. eigenvalues --   -2.69782  -1.66660  -1.63784  -1.63784  -1.11595
 Alpha  occ. eigenvalues --   -0.42657  -0.40970  -0.40970  -0.25393
 Alpha virt. eigenvalues --   -0.00023  -0.00023   0.01417   0.02244   0.03539
 Alpha virt. eigenvalues --    0.03539   0.03584   0.03584   0.04204   0.04204
 Alpha virt. eigenvalues --    0.04390   0.05438   0.08139   0.08139   0.10467

 Mulliken charges and spin densities:
               1          2
     1  Sc   1.259891   0.974658
     2  O   -1.259891   0.025342
 Sum of Mulliken charges =  -0.00000   1.00000

 Dipole moment (field-independent basis, Debye):
    X=              0.0000    Y=              0.0000    Z=              4.9286  Tot=              4.9286
 Quadrupole moment (field-independent basis, Debye-Ang):
   XX=            -21.7963   YY=            -21.7963   ZZ=            -32.3471
   XY=              0.0000   XZ=              0.0000   YZ=              0.0000

 \\#P ROCCSD(T)=(maxcyc=150, Full, SaveAmplitudes, ReadAmplitudes)/Gen
 93\CCSD=-62.7565862\CCSD(T)=-62.7974791\RMSD=2.784e-09\PG=C*V [C*(O1Sc
 Normal termination of Gaussian 16 at Wed Feb 21 04:06:09 2018.
