 Gaussian 16, Revision A.03,
 Gaussian 16:  ES64L-G16RevA.03 25-Dec-2016

 ----------------------------------------------------------------------
 #P ROCCSD(T)=(maxcyc=150, Full, SaveAmplitudes, ReadAmplitudes)/Gen 5d
  7f SCF=(maxcycles=300) Integral(NoXCTest) MaxDisk=500GB Pop=Regular P
 seudo=Read Guess=Read IOp(5/15=2)
 ----------------------------------------------------------------------

 ---
 CrO
 ---
 Symbolic Z-matrix:
 Charge =  0 Multiplicity = 5

                         Standard orientation:
 ---------------------------------------------------------------------
 Center     Atomic      Atomic             Coordinates (Angstroms)
 Number     Number       Type             X           Y           Z
 ---------------------------------------------------------------------
      1         24           0        0.000000    0.000000    0.300000
      2          8           0        0.000000    0.000000   -0.900000
 ---------------------------------------------------------------------

 SCF Done:  E(ROHF) =  -101.623834671     A.U. after   31 cycles
 E2 =    -0.8819236129D+00 EUMP2 =    -0.10250575828341D+03
 CCSD(T)
 CCSD(T)= -0.10251198170D+03

 Unable to determine electronic state:  an orbital has unidentified symmetry.
 Alpha  occ. eigenvalues --   -3.75888  -2.52212  -2.47683  -2.43932  -1.26758
 Alpha  occ. eigenvalues --   -0.75075  -0.68989  -0.65496  -0.50459  -0.50366
 Alpha  occ. eigenvalues --   -0.30315  -0.26251
 Alpha virt. eigenvalues --    0.01453   0.02450   0.02785   0.02819   0.05429
 Alpha virt. eigenvalues --    0.07022   0.07659   0.07743   0.07790   0.07793
 Alpha virt. eigenvalues --    0.09624   0.09976   0.12242   0.17882   0.20716

 Mulliken charges and spin densities:
               1          2
     1  Cr   0.855638   3.737323
     2  O   -0.855638   0.262677
 Sum of Mulliken charges =  -0.00000   4.00000

 Dipole moment (field-independent basis, Debye):
    X=              0.0000    Y=              0.0000    Z=              0.2521  Tot=              0.2521
 Quadrupole moment (field-independent basis, Debye-Ang):
   XX=            -22.8219   YY=            -19.9888   ZZ=            -22.9011
   XY=              0.0000   XZ=              0.0000   YZ=              0.0000

 \\#P ROCCSD(T)=(maxcyc=150, Full, SaveAmplitudes, ReadAmplitudes)/Gen
 SD=-102.4730255\CCSD(T)=-102.5119817\RMSD=4.191e-09\PG=C*V [C*(O1Cr1)]
 Normal termination of Gaussian 16 at Mon Mar 12 14:29:42 2018.
