 Gaussian 16, Revision A.03,
 Gaussian 16:  ES64L-G16RevA.03 25-Dec-2016

 ----------------------------------------------------------------------
 #P ROCCSD(T)=(maxcyc=150, Full, SaveAmplitudes, ReadAmplitudes)/Gen 5d
  7f SCF=(maxcycles=300) Integral(NoXCTest) MaxDisk=500GB Pop=Regular P
 seudo=Read Guess=Read
 ----------------------------------------------------------------------

 ---
 CrO
 ---
 Symbolic Z-matrix:
 Charge =  0 Multiplicity = 5

                         Standard orientation:
 ---------------------------------------------------------------------
 Center     Atomic      Atomic             Coordinates (Angstroms)
 Number     Number       Type             X           Y           Z
 ---------------------------------------------------------------------
      1         24           0        0.000000    0.000000    0.350000
      2          8           0        0.000000    0.000000   -1.050000
 ---------------------------------------------------------------------

 SCF Done:  E(ROHF) =  -101.986433960     A.U. after   24 cycles
 E2 =    -0.9275732528D+00 EUMP2 =    -0.10291400721246D+03
 CCSD(T)
 CCSD(T)= -0.10292801330D+03

 Unable to determine electronic state:  an orbital has unidentified symmetry.
 Alpha  occ. eigenvalues --   -3.76147  -2.47096  -2.42847  -2.42255  -1.22376
 Alpha  occ. eigenvalues --   -0.65323  -0.56902  -0.54014  -0.53076  -0.52068
 Alpha  occ. eigenvalues --   -0.38683  -0.28694
 Alpha virt. eigenvalues --    0.01070   0.01565   0.02025   0.02748   0.04541
 Alpha virt. eigenvalues --    0.04923   0.05377   0.05379   0.05524   0.05733
 Alpha virt. eigenvalues --    0.06934   0.06944   0.10480   0.13673   0.14198

 Mulliken charges and spin densities:
               1          2
     1  Cr   0.940031   3.868891
     2  O   -0.940031   0.131109
 Sum of Mulliken charges =  -0.00000   4.00000

 Dipole moment (field-independent basis, Debye):
    X=              0.0000    Y=              0.0000    Z=              3.1904  Tot=              3.1904
 Quadrupole moment (field-independent basis, Debye-Ang):
   XX=            -20.8741   YY=            -19.6226   ZZ=            -23.9871
   XY=              0.0000   XZ=              0.0000   YZ=              0.0000

 \\#P ROCCSD(T)=(maxcyc=150, Full, SaveAmplitudes, ReadAmplitudes)/Gen
 2-0=-102.9140072\CCSD=-102.8805763\CCSD(T)=-102.9280133\RMSD=3.864e-09
 Normal termination of Gaussian 16 at Mon Mar 12 16:08:33 2018.
