 Gaussian 16, Revision A.03,
 Gaussian 16:  ES64L-G16RevA.03 25-Dec-2016

 ----------------------------------------------------------------------
 #P ROCCSD(T)=(maxcyc=150, Full, SaveAmplitudes, ReadAmplitudes)/Gen 5d
  7f SCF=(maxcycles=300) Integral(NoXCTest) MaxDisk=500GB Pop=Regular P
 seudo=Read Guess=Read
 ----------------------------------------------------------------------

 ---
 ScO
 ---
 Symbolic Z-matrix:
 Charge =  0 Multiplicity = 2

                         Standard orientation:
 ---------------------------------------------------------------------
 Center     Atomic      Atomic             Coordinates (Angstroms)
 Number     Number       Type             X           Y           Z
 ---------------------------------------------------------------------
      1         21           0        0.000000    0.000000    0.331034
      2          8           0        0.000000    0.000000   -0.868966
 ---------------------------------------------------------------------

 SCF Done:  E(ROHF) =  -61.6443851497     A.U. after   17 cycles
 E2 =    -0.6853989579D+00 EUMP2 =    -0.62329784107567D+02
 CCSD(T)
 CCSD(T)= -0.62358513248D+02

 The electronic state is 2-SG.
 Alpha  occ. eigenvalues --   -2.61558  -1.81706  -1.51830  -1.51830  -1.04430
 Alpha  occ. eigenvalues --   -0.63751  -0.63751  -0.47718  -0.17893
 Alpha virt. eigenvalues --    0.00990   0.00990   0.01647   0.02535   0.02825
 Alpha virt. eigenvalues --    0.02825   0.02860   0.02860   0.02885   0.04336
 Alpha virt. eigenvalues --    0.04336   0.06514   0.08154   0.08154   0.08383

 Mulliken charges and spin densities:
               1          2
     1  Sc   0.811387   1.018029
     2  O   -0.811387  -0.018029
 Sum of Mulliken charges =  -0.00000   1.00000

 Dipole moment (field-independent basis, Debye):
    X=              0.0000    Y=              0.0000    Z=             -1.2078  Tot=              1.2078
 Quadrupole moment (field-independent basis, Debye-Ang):
   XX=            -23.4764   YY=            -23.4764   ZZ=            -28.9844
   XY=              0.0000   XZ=              0.0000   YZ=              0.0000

 \\#P ROCCSD(T)=(maxcyc=150, Full, SaveAmplitudes, ReadAmplitudes)/Gen
 443851\PMP2-0=-62.3297841\CCSD=-62.3294577\CCSD(T)=-62.3585132\RMSD=1.
 Normal termination of Gaussian 16 at Tue Mar 13 13:28:34 2018.
