 Gaussian 16, Revision A.03,
 Gaussian 16:  ES64L-G16RevA.03 25-Dec-2016

 ----------------------------------------------------------------------
 #P ROCCSD(T)=(maxcyc=150, Full)/Gen 5d 7f SCF=(maxcycles=300, NoVarAcc
 , VShift=200) MaxDisk=100GB Pop=Regular Pseudo=Read Guess=Read IOp(5/1
 5=2)
 ----------------------------------------------------------------------

 --
 Mn
 --
 Symbolic Z-matrix:
 Charge =  0 Multiplicity = 6

                         Standard orientation:
 ---------------------------------------------------------------------
 Center     Atomic      Atomic             Coordinates (Angstroms)
 Number     Number       Type             X           Y           Z
 ---------------------------------------------------------------------
      1         25           0        0.000000    0.000000    0.000000
 ---------------------------------------------------------------------

 SCF Done:  E(ROHF) =  -103.567570657     A.U. after   11 cycles
 E2 =    -0.5657297749D+00 EUMP2 =    -0.10413330043191D+03
 CCSD(T)
 CCSD(T)= -0.10415478534D+03

 The electronic state is 6-A1G.
 Alpha  occ. eigenvalues --   -4.15569  -2.80013  -2.80013  -2.80013  -0.62882
 Alpha  occ. eigenvalues --   -0.62882  -0.62882  -0.62882  -0.62882  -0.26825
 Alpha virt. eigenvalues --    0.01832   0.01832   0.01832   0.02663   0.06560
 Alpha virt. eigenvalues --    0.06560   0.06560   0.08966   0.08966   0.08966
 Alpha virt. eigenvalues --    0.08966   0.08966   0.13911   0.24179   0.24179

 Mulliken charges and spin densities:
               1          2
     1  Mn   0.000000   5.000000
 Sum of Mulliken charges =   0.00000   5.00000

 Dipole moment (field-independent basis, Debye):
    X=              0.0000    Y=              0.0000    Z=              0.0000  Tot=              0.0000
 Quadrupole moment (field-independent basis, Debye-Ang):
   XX=            -18.8276   YY=            -18.8276   ZZ=            -18.8276
   XY=              0.0000   XZ=              0.0000   YZ=             -0.0000

 1\1\GINC-C506-094\SP\ROCCSD(T)-Full\Gen\Mn1(6)\AANNABE\01-Apr-2018\0\\
 #P ROCCSD(T)=(maxcyc=150, Full)/Gen 5d 7f SCF=(maxcycles=300, NoVarAcc
 , VShift=200) MaxDisk=100GB Pop=Regular Pseudo=Read Guess=Read IOp(5/1
 5=2)\\Mn\\0,6\Mn,0,0.,0.,0.\\Version=ES64L-G16RevA.03\State=6-A1G\HF=-
 103.5675707\MP2=-104.1333004\MP3=-104.1342912\PUHF=-103.5675707\PMP2-0
 =-104.1333004\MP4SDQ=-104.1373567\CCSD=-104.1374684\CCSD(T)=-104.15478
 53\RMSD=8.380e-09\PG=OH [O(Mn1)]\\@

 Normal termination of Gaussian 16 at Sun Apr  1 12:49:11 2018.
