 Gaussian 16, Revision A.03,
 Gaussian 16:  ES64L-G16RevA.03 25-Dec-2016

 ----------------------------------------------------------------------
 #P ROCCSD(T)=(maxcyc=150, Full, SaveAmplitudes, ReadAmplitudes)/Gen 5d
  7f SCF=(maxcycles=300) Integral(NoXCTest) MaxDisk=500GB Pop=Regular P
 seudo=Read Guess=Read
 ----------------------------------------------------------------------

 ---
 ScO
 ---
 Symbolic Z-matrix:
 Charge =  0 Multiplicity = 2

                         Standard orientation:
 ---------------------------------------------------------------------
 Center     Atomic      Atomic             Coordinates (Angstroms)
 Number     Number       Type             X           Y           Z
 ---------------------------------------------------------------------
      1         21           0        0.000000    0.000000    0.524138
      2          8           0        0.000000    0.000000   -1.375862
 ---------------------------------------------------------------------

 SCF Done:  E(ROHF) =  -62.0400407121     A.U. after   16 cycles
 E2 =    -0.7273791515D+00 EUMP2 =    -0.62767419863625D+02
 CCSD(T)
 CCSD(T)= -0.62796391597D+02

 The electronic state is 2-SG.
 Alpha  occ. eigenvalues --   -2.77026  -1.67983  -1.67971  -1.67971  -1.09170
 Alpha  occ. eigenvalues --   -0.40226  -0.36393  -0.36393  -0.27476
 Alpha virt. eigenvalues --   -0.00902  -0.00902   0.00827   0.01797   0.02568
 Alpha virt. eigenvalues --    0.02568   0.02605   0.02605   0.03259   0.03259
 Alpha virt. eigenvalues --    0.03450   0.03920   0.05330   0.05330   0.08872

 Mulliken charges and spin densities:
               1          2
     1  Sc   1.239485   0.984490
     2  O   -1.239485   0.015510
 Sum of Mulliken charges =  -0.00000   1.00000

 Dipole moment (field-independent basis, Debye):
    X=              0.0000    Y=              0.0000    Z=              6.6309  Tot=              6.6309
 Quadrupole moment (field-independent basis, Debye-Ang):
   XX=            -21.9440   YY=            -21.9440   ZZ=            -34.2415
   XY=              0.0000   XZ=              0.0000   YZ=              0.0000

 \\#P ROCCSD(T)=(maxcyc=150, Full, SaveAmplitudes, ReadAmplitudes)/Gen
 400407\PMP2-0=-62.7674199\CCSD=-62.7474638\CCSD(T)=-62.7963916\RMSD=4.
 Normal termination of Gaussian 16 at Wed Feb 28 20:13:03 2018.
