 Gaussian 16, Revision A.03,
 Gaussian 16:  ES64L-G16RevA.03 25-Dec-2016

 ----------------------------------------------------------------------
 #P ROCCSD(T)=(maxcyc=150, Full, SaveAmplitudes, ReadAmplitudes)/Gen 5d
  7f SCF=(maxcycles=300) Integral(NoXCTest) MaxDisk=500GB Pop=Regular P
 seudo=Read Guess=Read IOp(5/15=2)
 ----------------------------------------------------------------------

 ---
 ScO
 ---
 Symbolic Z-matrix:
 Charge =  0 Multiplicity = 2

                         Standard orientation:
 ---------------------------------------------------------------------
 Center     Atomic      Atomic             Coordinates (Angstroms)
 Number     Number       Type             X           Y           Z
 ---------------------------------------------------------------------
      1         21           0        0.000000    0.000000    0.551724
      2          8           0        0.000000    0.000000   -1.448276
 ---------------------------------------------------------------------

 SCF Done:  E(ROHF) =  -61.9923488310     A.U. after   18 cycles
 E2 =    -0.6995547887D+00 EUMP2 =    -0.62691903619704D+02
 CCSD(T)
 CCSD(T)= -0.62725456711D+02

 The electronic state is 2-SG.
 Alpha  occ. eigenvalues --   -2.79322  -1.70143  -1.70143  -1.69610  -1.09793
 Alpha  occ. eigenvalues --   -0.38966  -0.34669  -0.34669  -0.28382
 Alpha virt. eigenvalues --   -0.01370  -0.01370   0.00577   0.01719   0.02810
 Alpha virt. eigenvalues --    0.02810   0.03117   0.03117   0.03723   0.04381
 Alpha virt. eigenvalues --    0.04381   0.04992   0.05150   0.05150   0.09670

 Mulliken charges and spin densities:
               1          2
     1  Sc   1.191539   0.977465
     2  O   -1.191539   0.022535
 Sum of Mulliken charges =  -0.00000   1.00000

 Dipole moment (field-independent basis, Debye):
    X=              0.0000    Y=              0.0000    Z=              7.4544  Tot=              7.4544
 Quadrupole moment (field-independent basis, Debye-Ang):
   XX=            -22.0756   YY=            -22.0756   ZZ=            -35.0655
   XY=              0.0000   XZ=              0.0000   YZ=              0.0000

 \\#P ROCCSD(T)=(maxcyc=150, Full, SaveAmplitudes, ReadAmplitudes)/Gen
 8\CCSD=-62.674705\CCSD(T)=-62.7254567\RMSD=5.391e-09\PG=C*V [C*(O1Sc1)
 Normal termination of Gaussian 16 at Wed Feb 21 08:12:48 2018.
