 Gaussian 16, Revision A.03,
 Gaussian 16:  ES64L-G16RevA.03 25-Dec-2016

 ----------------------------------------------------------------------
 #P ROCCSD(T)=(maxcyc=150, Full)/Gen 5d 7f SCF=(maxcycles=300) Integral
 (NoXCTest) MaxDisk=500GB Pop=Regular Pseudo=Read IOp(5/15=2) Guess=Rea
 d
 ----------------------------------------------------------------------

 ---
 ScH
 ---
 Symbolic Z-matrix:
 Charge =  0 Multiplicity = 1

                         Standard orientation:
 ---------------------------------------------------------------------
 Center     Atomic      Atomic             Coordinates (Angstroms)
 Number     Number       Type             X           Y           Z
 ---------------------------------------------------------------------
      1         21           0        0.000000    0.000000    0.050000
      2          1           0        0.000000    0.000000   -1.050000
 ---------------------------------------------------------------------

 SCF Done:  E(ROHF) =  -46.4149035930     A.U. after   12 cycles
 E2 =    -0.4165901445D+00 EUMP2 =    -0.46831493737461D+02
 CCSD(T)
 CCSD(T)= -0.46870019966D+02

 The electronic state is 1-SG.
 Alpha  occ. eigenvalues --   -2.61405  -1.64795  -1.57715  -1.57715  -0.47389
 Alpha  occ. eigenvalues --   -0.21319
 Alpha virt. eigenvalues --    0.01363   0.01408   0.01408   0.02290   0.03462
 Alpha virt. eigenvalues --    0.03912   0.03912   0.03956   0.03956   0.04805
 Alpha virt. eigenvalues --    0.05015   0.05015   0.09438   0.10804   0.10804

 Mulliken charges and spin densities:
               1          2
     1  Sc   0.530380  -0.000000
     2  H   -0.530380  -0.000000
 Sum of Mulliken charges =  -0.00000  -0.00000

 Dipole moment (field-independent basis, Debye):
    X=              0.0000    Y=              0.0000    Z=              0.9925  Tot=              0.9925
 Quadrupole moment (field-independent basis, Debye-Ang):
   XX=            -23.6926   YY=            -23.6926   ZZ=            -22.1891
   XY=              0.0000   XZ=              0.0000   YZ=              0.0000

 P ROCCSD(T)=(maxcyc=150, Full)/Gen 5d 7f SCF=(maxcycles=300) Integral(
 PMP2-0=-46.8314937\MP4SDQ=-46.8531712\CCSD=-46.8528128\CCSD(T)=-46.870
 Normal termination of Gaussian 16 at Tue Feb 13 17:01:18 2018.
