 Gaussian 16, Revision A.03,
 Gaussian 16:  ES64L-G16RevA.03 25-Dec-2016

 ----------------------------------------------------------------------
 #P ROCCSD(T)=(maxcyc=150, FrzINGC)/Gen 5d 7f SCF=(maxcycles=300) Integ
 ral(NoXCTest, DKHSO) MaxDisk=500GB Pop=Regular IOp(5/15=2) Guess=Read
 ----------------------------------------------------------------------

 ---
 ScH
 ---
 Symbolic Z-matrix:
 Charge =  0 Multiplicity = 1

                         Standard orientation:
 ---------------------------------------------------------------------
 Center     Atomic      Atomic             Coordinates (Angstroms)
 Number     Number       Type             X           Y           Z
 ---------------------------------------------------------------------
      1         21           0        0.000000    0.000000    0.077273
      2          1           0        0.000000    0.000000   -1.622727
 ---------------------------------------------------------------------

 SCF Done:  E(ROHF) =  -763.831699698     A.U. after   11 cycles
 E2 =    -0.3945307685D+00 EUMP2 =    -0.76422623046672D+03
 CCSD(T)
 CCSD(T)= -0.76426810186D+03

 The electronic state is 1-SG.
 Alpha  occ. eigenvalues -- -166.91053 -19.36529 -15.78862 -15.78862 -15.78117
 Alpha  occ. eigenvalues --   -2.67717  -1.65441  -1.65295  -1.65295  -0.41836
 Alpha  occ. eigenvalues --   -0.22934
 Alpha virt. eigenvalues --    0.01143   0.01143   0.01569   0.01914   0.02857
 Alpha virt. eigenvalues --    0.02857   0.02916   0.02916   0.02936   0.04132
 Alpha virt. eigenvalues --    0.04132   0.04387   0.07475   0.07475   0.07893

 Mulliken charges and spin densities:
               1          2
     1  Sc   0.268088  -0.000000
     2  H   -0.268088  -0.000000
 Sum of Mulliken charges =  -0.00000  -0.00000

 Dipole moment (field-independent basis, Debye):
    X=              0.0000    Y=             -0.0000    Z=              1.1330  Tot=              1.1330
 Quadrupole moment (field-independent basis, Debye-Ang):
   XX=            -23.5518   YY=            -23.5518   ZZ=            -26.6522
   XY=             -0.0000   XZ=              0.0000   YZ=             -0.0000

  ROCCSD(T)=(maxcyc=150, FrzINGC)/Gen 5d 7f SCF=(maxcycles=300) Integra
 PMP2-0=-764.2262305\MP4SDQ=-764.2503885\CCSD=-764.2508512\CCSD(T)=-764
 Normal termination of Gaussian 16 at Tue Feb 13 19:02:34 2018.
