 Gaussian 16, Revision A.03,
 Gaussian 16:  ES64L-G16RevA.03 25-Dec-2016

 ----------------------------------------------------------------------
 #P ROCCSD(T)=(MaxCyc=150, Full)/Gen SCF=(maxcycle=400, vshift=200) Pse
 udo=Read Integral(NoXCTest) Pop=Regular MaxDisk=500GB Guess=Read
 ----------------------------------------------------------------------

 ---
 NiO
 ---
 Symbolic Z-matrix:
 Charge =  0 Multiplicity = 3

                         Standard orientation:
 ---------------------------------------------------------------------
 Center     Atomic      Atomic             Coordinates (Angstroms)
 Number     Number       Type             X           Y           Z
 ---------------------------------------------------------------------
      1         28           0        0.000000    0.000000    0.355556
      2          8           0        0.000000    0.000000   -1.244444
 ---------------------------------------------------------------------

 SCF Done:  E(ROHF) =  -184.128438088     A.U. after   20 cycles
 E2 =    -0.1226134095D+01 EUMP2 =    -0.18535457218270D+03
 CCSD(T)
 CCSD(T)= -0.18537711821D+03

 The electronic state is 3-SG.
 Alpha  occ. eigenvalues --   -5.20196  -3.50295  -3.41836  -3.41836  -1.17372
 Alpha  occ. eigenvalues --   -0.79799  -0.79799  -0.72947  -0.70605  -0.70605
 Alpha  occ. eigenvalues --   -0.38440  -0.38440  -0.37542
 Alpha virt. eigenvalues --   -0.05091   0.01896   0.01896   0.01997   0.03885
 Alpha virt. eigenvalues --    0.06943   0.06943   0.07582   0.08021   0.08021
 Alpha virt. eigenvalues --    0.09209   0.09209   0.12873   0.15000   0.22035

 Mulliken charges and spin densities:
               1          2
     1  Ni   1.001583   1.887221
     2  O   -1.001583   0.112779
 Sum of Mulliken charges =  -0.00000   2.00000

 Dipole moment (field-independent basis, Debye):
    X=              0.0000    Y=              0.0000    Z=              7.9327  Tot=              7.9327
 Quadrupole moment (field-independent basis, Debye-Ang):
   XX=            -18.4054   YY=            -18.4054   ZZ=            -21.0733
   XY=              0.0000   XZ=              0.0000   YZ=              0.0000

 \\#P ROCCSD(T)=(MaxCyc=150, Full)/Gen SCF=(maxcycle=400, vshift=200) P
 PMP2-0=-185.3545722\MP4SDQ=-185.3244644\CCSD=-185.3136841\CCSD(T)=-185
 Normal termination of Gaussian 16 at Fri May  4 14:17:38 2018.
