 Gaussian 16, Revision A.03,
 Gaussian 16:  ES64L-G16RevA.03 25-Dec-2016

 ----------------------------------------------------------------------
 #P ROCCSD(T)=(MaxCyc=150, Full)/Gen SCF=(maxcycle=400, vshift=200) Pse
 udo=Read Integral(NoXCTest) Pop=Regular MaxDisk=500GB Guess=Read
 ----------------------------------------------------------------------

 ---
 NiO
 ---
 Symbolic Z-matrix:
 Charge =  0 Multiplicity = 3

                         Standard orientation:
 ---------------------------------------------------------------------
 Center     Atomic      Atomic             Coordinates (Angstroms)
 Number     Number       Type             X           Y           Z
 ---------------------------------------------------------------------
      1         28           0        0.000000    0.000000    0.355556
      2          8           0        0.000000    0.000000   -1.244444
 ---------------------------------------------------------------------

 SCF Done:  E(ROHF) =  -184.111076396     A.U. after   23 cycles
 E2 =    -0.1172519649D+01 EUMP2 =    -0.18528359604533D+03
 CCSD(T)
 CCSD(T)= -0.18530645201D+03

 The electronic state is 3-SG.
 Alpha  occ. eigenvalues --   -5.17698  -3.51893  -3.43472  -3.43472  -1.17427
 Alpha  occ. eigenvalues --   -0.79744  -0.79744  -0.72907  -0.70589  -0.70589
 Alpha  occ. eigenvalues --   -0.38445  -0.38445  -0.37543
 Alpha virt. eigenvalues --   -0.05090   0.02271   0.02271   0.02283   0.04303
 Alpha virt. eigenvalues --    0.08167   0.08167   0.10627   0.12185   0.12185
 Alpha virt. eigenvalues --    0.13246   0.13246   0.15533   0.16176   0.26357

 Mulliken charges and spin densities:
               1          2
     1  Ni   1.117425   1.885420
     2  O   -1.117425   0.114580
 Sum of Mulliken charges =  -0.00000   2.00000

 Dipole moment (field-independent basis, Debye):
    X=              0.0000    Y=              0.0000    Z=              7.9422  Tot=              7.9422
 Quadrupole moment (field-independent basis, Debye-Ang):
   XX=            -18.4239   YY=            -18.4239   ZZ=            -21.0983
   XY=              0.0000   XZ=              0.0000   YZ=              0.0000

 \\#P ROCCSD(T)=(MaxCyc=150, Full)/Gen SCF=(maxcycle=400, vshift=200) P
 P2-0=-185.283596\MP4SDQ=-185.2582013\CCSD=-185.2455683\CCSD(T)=-185.30
 Normal termination of Gaussian 16 at Fri Aug 17 12:01:56 2018.
