 Gaussian 16, Revision A.03,
 Gaussian 16:  ES64L-G16RevA.03 25-Dec-2016

 ----------------------------------------------------------------------
 #P ROCCSD(T)=(MaxCyc=150, Full)/Gen SCF=(maxcycle=400, vshift=200) Pse
 udo=Read Integral(NoXCTest) Pop=Regular MaxDisk=500GB Guess=Read
 ----------------------------------------------------------------------

 ---
 NiO
 ---
 Symbolic Z-matrix:
 Charge =  0 Multiplicity = 3

                         Standard orientation:
 ---------------------------------------------------------------------
 Center     Atomic      Atomic             Coordinates (Angstroms)
 Number     Number       Type             X           Y           Z
 ---------------------------------------------------------------------
      1         28           0        0.000000    0.000000    0.355556
      2          8           0        0.000000    0.000000   -1.244444
 ---------------------------------------------------------------------

 SCF Done:  E(ROHF) =  -184.124802272     A.U. after   27 cycles
 E2 =    -0.1168637158D+01 EUMP2 =    -0.18529343943080D+03
 CCSD(T)
 CCSD(T)= -0.18531822281D+03

 The electronic state is 3-SG.
 Alpha  occ. eigenvalues --   -5.20202  -3.50316  -3.41851  -3.41851  -1.17417
 Alpha  occ. eigenvalues --   -0.79802  -0.79802  -0.72953  -0.70605  -0.70605
 Alpha  occ. eigenvalues --   -0.38436  -0.38436  -0.37552
 Alpha virt. eigenvalues --   -0.05102   0.02270   0.02270   0.02279   0.04304
 Alpha virt. eigenvalues --    0.08164   0.08164   0.10624   0.12184   0.12184
 Alpha virt. eigenvalues --    0.13246   0.13246   0.15532   0.16173   0.26358

 Mulliken charges and spin densities:
               1          2
     1  Ni   1.116629   1.885536
     2  O   -1.116629   0.114464
 Sum of Mulliken charges =  -0.00000   2.00000

 Dipole moment (field-independent basis, Debye):
    X=              0.0000    Y=              0.0000    Z=              7.9469  Tot=              7.9469
 Quadrupole moment (field-independent basis, Debye-Ang):
   XX=            -18.4136   YY=            -18.4136   ZZ=            -21.0889
   XY=              0.0000   XZ=              0.0000   YZ=              0.0000

 \\#P ROCCSD(T)=(MaxCyc=150, Full)/Gen SCF=(maxcycle=400, vshift=200) P
 PMP2-0=-185.2934394\MP4SDQ=-185.2691392\CCSD=-185.2574069\CCSD(T)=-185
 Normal termination of Gaussian 16 at Fri May  4 11:39:19 2018.
