 Gaussian 16, Revision A.03,
 Gaussian 16:  ES64L-G16RevA.03 25-Dec-2016

 ----------------------------------------------------------------------
 #P ROCCSD(T)=(MaxCyc=150, Full)/Gen SCF=(maxcycle=400, vshift=200) Pse
 udo=Read Integral(NoXCTest) Pop=Regular MaxDisk=500GB Guess=Read
 ----------------------------------------------------------------------

 ---
 NiO
 ---
 Symbolic Z-matrix:
 Charge =  0 Multiplicity = 3

                         Standard orientation:
 ---------------------------------------------------------------------
 Center     Atomic      Atomic             Coordinates (Angstroms)
 Number     Number       Type             X           Y           Z
 ---------------------------------------------------------------------
      1         28           0        0.000000    0.000000    0.355556
      2          8           0        0.000000    0.000000   -1.244444
 ---------------------------------------------------------------------

 SCF Done:  E(ROHF) =  -184.114573365     A.U. after   18 cycles
 E2 =    -0.1229891915D+01 EUMP2 =    -0.18534446527956D+03
 CCSD(T)
 CCSD(T)= -0.18536508609D+03

 The electronic state is 3-SG.
 Alpha  occ. eigenvalues --   -5.17688  -3.51869  -3.43454  -3.43454  -1.17382
 Alpha  occ. eigenvalues --   -0.79740  -0.79740  -0.72900  -0.70590  -0.70590
 Alpha  occ. eigenvalues --   -0.38449  -0.38449  -0.37533
 Alpha virt. eigenvalues --   -0.05079   0.01897   0.01897   0.02000   0.03884
 Alpha virt. eigenvalues --    0.06945   0.06945   0.07583   0.08021   0.08021
 Alpha virt. eigenvalues --    0.09210   0.09210   0.12875   0.15004   0.22043

 Mulliken charges and spin densities:
               1          2
     1  Ni   1.001182   1.887059
     2  O   -1.001182   0.112941
 Sum of Mulliken charges =  -0.00000   2.00000

 Dipole moment (field-independent basis, Debye):
    X=              0.0000    Y=              0.0000    Z=              7.9279  Tot=              7.9279
 Quadrupole moment (field-independent basis, Debye-Ang):
   XX=            -18.4158   YY=            -18.4158   ZZ=            -21.0829
   XY=              0.0000   XZ=              0.0000   YZ=              0.0000

 \\#P ROCCSD(T)=(MaxCyc=150, Full)/Gen SCF=(maxcycle=400, vshift=200) P
 PMP2-0=-185.3444653\MP4SDQ=-185.3132571\CCSD=-185.3015853\CCSD(T)=-185
 Normal termination of Gaussian 16 at Fri Aug 17 13:04:53 2018.
