 Gaussian 16, Revision A.03,
 Gaussian 16:  ES64L-G16RevA.03 25-Dec-2016

 ----------------------------------------------------------------------
 #P ROCCSD(T)=(maxcyc=150, Full, SaveAmplitudes, ReadAmplitudes)/Gen 5d
  7f SCF=(maxcycles=300) Integral(NoXCTest) MaxDisk=500GB Pop=Regular P
 seudo=Read Guess=Read IOp(5/15=2)
 ----------------------------------------------------------------------

 ---
 CrO
 ---
 Symbolic Z-matrix:
 Charge =  0 Multiplicity = 5

                         Standard orientation:
 ---------------------------------------------------------------------
 Center     Atomic      Atomic             Coordinates (Angstroms)
 Number     Number       Type             X           Y           Z
 ---------------------------------------------------------------------
      1         24           0        0.000000    0.000000    0.350000
      2          8           0        0.000000    0.000000   -1.050000
 ---------------------------------------------------------------------

 SCF Done:  E(ROHF) =  -101.964261511     A.U. after   26 cycles
 E2 =    -0.8929370312D+00 EUMP2 =    -0.10285719854175D+03
 CCSD(T)
 CCSD(T)= -0.10287637241D+03

 Unable to determine electronic state:  an orbital has unidentified symmetry.
 Alpha  occ. eigenvalues --   -3.69006  -2.46487  -2.42244  -2.41431  -1.23883
 Alpha  occ. eigenvalues --   -0.65147  -0.56997  -0.53704  -0.53384  -0.51949
 Alpha  occ. eigenvalues --   -0.38644  -0.28722
 Alpha virt. eigenvalues --    0.01017   0.01874   0.02189   0.03048   0.04862
 Alpha virt. eigenvalues --    0.05810   0.06776   0.07667   0.07674   0.07968
 Alpha virt. eigenvalues --    0.08507   0.09163   0.12548   0.15812   0.17658

 Mulliken charges and spin densities:
               1          2
     1  Cr   0.984999   3.806481
     2  O   -0.984999   0.193519
 Sum of Mulliken charges =  -0.00000   4.00000

 Dipole moment (field-independent basis, Debye):
    X=              0.0000    Y=              0.0000    Z=              3.1003  Tot=              3.1003
 Quadrupole moment (field-independent basis, Debye-Ang):
   XX=            -20.9553   YY=            -19.6534   ZZ=            -24.2277
   XY=              0.0000   XZ=              0.0000   YZ=              0.0000

 \\#P ROCCSD(T)=(maxcyc=150, Full, SaveAmplitudes, ReadAmplitudes)/Gen
 SD=-102.8310436\CCSD(T)=-102.8763724\RMSD=3.415e-09\PG=C*V [C*(O1Cr1)]
 Normal termination of Gaussian 16 at Mon Mar 12 14:31:53 2018.
