 Gaussian 16, Revision A.03,
 Gaussian 16:  ES64L-G16RevA.03 25-Dec-2016

 ----------------------------------------------------------------------
 #P ROCCSD(T)=(MaxCyc=150, FrzINGC)/Gen SCF=(maxcycle=400) Integral(DKH
 SO, NoXCTest) Pop=Regular MaxDisk=500GB Guess=Read IOp(5/15=2)
 ----------------------------------------------------------------------

 ---
 FeH
 ---
 Symbolic Z-matrix:
 Charge =  0 Multiplicity = 4

                         Standard orientation:
 ---------------------------------------------------------------------
 Center     Atomic      Atomic             Coordinates (Angstroms)
 Number     Number       Type             X           Y           Z
 ---------------------------------------------------------------------
      1         26           0        0.000000    0.000000    0.051852
      2          1           0        0.000000    0.000000   -1.348148
 ---------------------------------------------------------------------

 SCF Done:  E(ROHF) =  -1271.81059514     A.U. after   34 cycles
 E2 =    -0.7626575090D+00 EUMP2 =    -0.12725732526511D+04
 CCSD(T)
 CCSD(T)= -0.12725603648D+04

 Unable to determine electronic state:  an orbital has unidentified symmetry.
 Alpha  occ. eigenvalues -- -263.55387 -32.33437 -27.40290 -27.40082 -27.40082
 Alpha  occ. eigenvalues --   -4.23015  -2.78358  -2.76974  -2.76974  -0.52194
 Alpha  occ. eigenvalues --   -0.52194  -0.50650  -0.48611  -0.45718  -0.31287
 Alpha virt. eigenvalues --    0.00022   0.02470   0.02470   0.03035   0.04478
 Alpha virt. eigenvalues --    0.08396   0.08396   0.09605   0.10302   0.10339
 Alpha virt. eigenvalues --    0.10348   0.10348   0.10594   0.16942   0.24502

 Mulliken charges and spin densities:
               1          2
     1  Fe   0.402806   2.995509
     2  H   -0.402806   0.004491
 Sum of Mulliken charges =  -0.00000   3.00000

 Dipole moment (field-independent basis, Debye):
    X=              0.0000    Y=              0.0000    Z=              3.7381  Tot=              3.7381
 Quadrupole moment (field-independent basis, Debye-Ang):
   XX=            -16.4160   YY=            -16.4160   ZZ=            -16.6550
   XY=              0.0000   XZ=              0.0000   YZ=              0.0000

 \#P ROCCSD(T)=(MaxCyc=150, FrzINGC)/Gen SCF=(maxcycle=400) Integral(DK
 72.5732527\MP4SDQ=-1272.5462482\CCSD=-1272.5321019\CCSD(T)=-1272.56036
 Normal termination of Gaussian 16 at Wed Mar  7 11:17:43 2018.
