 Gaussian 16, Revision A.03,
 Gaussian 16:  ES64L-G16RevA.03 25-Dec-2016

 ----------------------------------------------------------------------
 #P ROCCSD(T)=(MaxCyc=150, FrzINGC)/Gen SCF=(maxcycle=400, vshift=200)
 Integral(DKHSO, NoXCTest) Pop=Regular MaxDisk=500GB Guess=Read IOp(5/1
 5=2)
 ----------------------------------------------------------------------

 ---
 FeH
 ---
 Symbolic Z-matrix:
 Charge =  0 Multiplicity = 4

                         Standard orientation:
 ---------------------------------------------------------------------
 Center     Atomic      Atomic             Coordinates (Angstroms)
 Number     Number       Type             X           Y           Z
 ---------------------------------------------------------------------
      1         26           0        0.000000    0.000000    0.051852
      2          1           0        0.000000    0.000000   -1.348148
 ---------------------------------------------------------------------

 SCF Done:  E(ROHF) =  -1271.81256458     A.U. after   41 cycles
 E2 =    -0.8107696853D+00 EUMP2 =    -0.12726233342683D+04
 CCSD(T)
 CCSD(T)= -0.12726066082D+04

 Unable to determine electronic state:  an orbital has unidentified symmetry.
 Alpha  occ. eigenvalues -- -263.55377 -32.33407 -27.40255 -27.40050 -27.40050
 Alpha  occ. eigenvalues --   -4.22994  -2.78337  -2.76956  -2.76956  -0.52189
 Alpha  occ. eigenvalues --   -0.52189  -0.50648  -0.48618  -0.45723  -0.31289
 Alpha virt. eigenvalues --   -0.00043   0.02180   0.02180   0.02475   0.03664
 Alpha virt. eigenvalues --    0.05834   0.06257   0.06266   0.06308   0.06308
 Alpha virt. eigenvalues --    0.07313   0.07313   0.08366   0.13030   0.17127

 Mulliken charges and spin densities:
               1          2
     1  Fe   0.294197   2.993627
     2  H   -0.294197   0.006373
 Sum of Mulliken charges =  -0.00000   3.00000

 Dipole moment (field-independent basis, Debye):
    X=              0.0000    Y=              0.0000    Z=              3.7344  Tot=              3.7344
 Quadrupole moment (field-independent basis, Debye-Ang):
   XX=            -16.4023   YY=            -16.4023   ZZ=            -16.6634
   XY=              0.0000   XZ=              0.0000   YZ=              0.0000

 \#P ROCCSD(T)=(MaxCyc=150, FrzINGC)/Gen SCF=(maxcycle=400, vshift=200)
 Normal termination of Gaussian 16 at Thu Mar  8 18:54:42 2018.
