 Gaussian 16, Revision A.03,
 Gaussian 16:  ES64L-G16RevA.03 25-Dec-2016

 ----------------------------------------------------------------------
 #P ROCCSD(T)=(MaxCyc=150, FrzINGC)/Gen SCF=(maxcycle=400) Integral(DKH
 SO, NoXCTest) Pop=Regular MaxDisk=500GB Guess=Read IOp(5/15=2)
 ----------------------------------------------------------------------

 ---
 FeH
 ---
 Symbolic Z-matrix:
 Charge =  0 Multiplicity = 4

                         Standard orientation:
 ---------------------------------------------------------------------
 Center     Atomic      Atomic             Coordinates (Angstroms)
 Number     Number       Type             X           Y           Z
 ---------------------------------------------------------------------
      1         26           0        0.000000    0.000000    0.051852
      2          1           0        0.000000    0.000000   -1.348148
 ---------------------------------------------------------------------

 SCF Done:  E(ROHF) =  -1271.81228944     A.U. after   26 cycles
 E2 =    -0.7969149222D+00 EUMP2 =    -0.12726092043572D+04
 CCSD(T)
 CCSD(T)= -0.12725943884D+04

 Unable to determine electronic state:  partially filled degenerate orbitals.
 Alpha  occ. eigenvalues -- -263.55376 -32.33411 -27.40261 -27.40054 -27.40054
 Alpha  occ. eigenvalues --   -4.22998  -2.78341  -2.76960  -2.76960  -0.52193
 Alpha  occ. eigenvalues --   -0.52193  -0.50651  -0.48616  -0.45721  -0.31288
 Alpha virt. eigenvalues --   -0.00003   0.02246   0.02246   0.02769   0.04253
 Alpha virt. eigenvalues --    0.06242   0.06832   0.06835   0.06835   0.06844
 Alpha virt. eigenvalues --    0.07653   0.07653   0.09546   0.16941   0.17918

 Mulliken charges and spin densities:
               1          2
     1  Fe   0.281627   2.994218
     2  H   -0.281627   0.005782
 Sum of Mulliken charges =  -0.00000   3.00000

 Dipole moment (field-independent basis, Debye):
    X=              0.0000    Y=             -0.0000    Z=              3.7344  Tot=              3.7344
 Quadrupole moment (field-independent basis, Debye-Ang):
   XX=            -16.4044   YY=            -16.4044   ZZ=            -16.6614
   XY=             -0.0000   XZ=             -0.0000   YZ=             -0.0000

 \#P ROCCSD(T)=(MaxCyc=150, FrzINGC)/Gen SCF=(maxcycle=400) Integral(DK
 72.6092044\MP4SDQ=-1272.5787762\CCSD=-1272.5647405\CCSD(T)=-1272.59438
 Normal termination of Gaussian 16 at Wed Mar  7 12:13:57 2018.
