 Gaussian 16, Revision A.03,
 Gaussian 16:  ES64L-G16RevA.03 25-Dec-2016

 ----------------------------------------------------------------------
 #P ROCCSD(T)=(MaxCyc=150, Full)/Gen SCF=(maxcycle=400) Pseudo=Read Int
 egral(NoXCTest) Pop=Regular MaxDisk=500GB Guess=Read IOp(5/15=2)
 ----------------------------------------------------------------------

 ---
 CoO
 ---
 Symbolic Z-matrix:
 Charge =  0 Multiplicity = 4

                         Standard orientation:
 ---------------------------------------------------------------------
 Center     Atomic      Atomic             Coordinates (Angstroms)
 Number     Number       Type             X           Y           Z
 ---------------------------------------------------------------------
      1         27           0        0.000000    0.000000    0.411429
      2          8           0        0.000000    0.000000   -1.388571
 ---------------------------------------------------------------------

 SCF Done:  E(ROHF) =  -160.614369522     A.U. after   26 cycles
 E2 =    -0.1073857932D+01 EUMP2 =    -0.16168822745362D+03
 CCSD(T)
 CCSD(T)= -0.16171261440D+03

 Unable to determine electronic state:  partially filled degenerate orbitals.
 Alpha  occ. eigenvalues --   -4.71398  -3.23419  -3.23419  -3.23385  -1.12480
 Alpha  occ. eigenvalues --   -0.76782  -0.76782  -0.76494  -0.71304  -0.69245
 Alpha  occ. eigenvalues --   -0.38292  -0.38292  -0.34903
 Alpha virt. eigenvalues --   -0.05396   0.01883   0.01883   0.02059   0.04166
 Alpha virt. eigenvalues --    0.07343   0.07343   0.09852   0.10626   0.10655
 Alpha virt. eigenvalues --    0.11506   0.11506   0.14540   0.15265   0.25915

 Mulliken charges and spin densities:
               1          2
     1  Co   0.985090   2.957942
     2  O   -0.985090   0.042058
 Sum of Mulliken charges =   0.00000   3.00000

 Dipole moment (field-independent basis, Debye):
    X=              0.0000    Y=              0.0000    Z=              8.0683  Tot=              8.0683
 Quadrupole moment (field-independent basis, Debye-Ang):
   XX=            -19.0945   YY=            -19.0945   ZZ=            -22.7579
   XY=              0.0000   XZ=              0.0000   YZ=              0.0000

 \\#P ROCCSD(T)=(MaxCyc=150, Full)/Gen SCF=(maxcycle=400) Pseudo=Read I
 .6882275\MP4SDQ=-161.6673961\CCSD=-161.6576068\CCSD(T)=-161.7126144\RM
 Normal termination of Gaussian 16 at Sat Mar 31 14:47:03 2018.
