 Gaussian 16, Revision A.03,
 Gaussian 16:  ES64L-G16RevA.03 25-Dec-2016

 ----------------------------------------------------------------------
 #P ROCCSD(T)=(MaxCyc=150, Full)/Gen SCF=(maxcycle=400) Pseudo=Read Int
 egral(NoXCTest) Pop=Regular MaxDisk=500GB Guess=Read IOp(5/15=2)
 ----------------------------------------------------------------------

 ---
 CoO
 ---
 Symbolic Z-matrix:
 Charge =  0 Multiplicity = 4

                         Standard orientation:
 ---------------------------------------------------------------------
 Center     Atomic      Atomic             Coordinates (Angstroms)
 Number     Number       Type             X           Y           Z
 ---------------------------------------------------------------------
      1         27           0        0.000000    0.000000    0.411429
      2          8           0        0.000000    0.000000   -1.388571
 ---------------------------------------------------------------------

 SCF Done:  E(ROHF) =  -160.617376922     A.U. after   19 cycles
 E2 =    -0.1125233971D+01 EUMP2 =    -0.16174261089281D+03
 CCSD(T)
 CCSD(T)= -0.16176433645D+03

 Unable to determine electronic state:  partially filled degenerate orbitals.
 Alpha  occ. eigenvalues --   -4.71342  -3.23387  -3.23387  -3.23351  -1.12445
 Alpha  occ. eigenvalues --   -0.76778  -0.76778  -0.76492  -0.71301  -0.69238
 Alpha  occ. eigenvalues --   -0.38307  -0.38307  -0.34886
 Alpha virt. eigenvalues --   -0.05387   0.01609   0.01609   0.01823   0.03745
 Alpha virt. eigenvalues --    0.06490   0.06490   0.07028   0.07038   0.07113
 Alpha virt. eigenvalues --    0.08004   0.08004   0.12286   0.14246   0.20869

 Mulliken charges and spin densities:
               1          2
     1  Co   0.966745   2.958226
     2  O   -0.966745   0.041774
 Sum of Mulliken charges =  -0.00000   3.00000

 Dipole moment (field-independent basis, Debye):
    X=              0.0000    Y=              0.0000    Z=              8.0549  Tot=              8.0549
 Quadrupole moment (field-independent basis, Debye-Ang):
   XX=            -19.0906   YY=            -19.0906   ZZ=            -22.7379
   XY=              0.0000   XZ=              0.0000   YZ=              0.0000

 \\#P ROCCSD(T)=(MaxCyc=150, Full)/Gen SCF=(maxcycle=400) Pseudo=Read I
 .7426109\MP4SDQ=-161.7159609\CCSD=-161.7070786\CCSD(T)=-161.7643364\RM
 Normal termination of Gaussian 16 at Sat Mar 31 17:10:15 2018.
