 Gaussian 16, Revision A.03,
 Gaussian 16:  ES64L-G16RevA.03 25-Dec-2016

 ----------------------------------------------------------------------
 #P ROCCSD(T)=(maxcyc=150, Full)/Gen 5d 7f SCF=(maxcycles=300) Integral
 (NoXCTest, DKHSO) MaxDisk=500GB Pop=Regular IOp(5/15=2) Guess=Read
 ----------------------------------------------------------------------

 ---
 CrH
 ---
 Symbolic Z-matrix:
 Charge =  0 Multiplicity = 6

                         Standard orientation:
 ---------------------------------------------------------------------
 Center     Atomic      Atomic             Coordinates (Angstroms)
 Number     Number       Type             X           Y           Z
 ---------------------------------------------------------------------
      1         24           0        0.000000    0.000000    0.048000
      2          1           0        0.000000    0.000000   -1.152000
 ---------------------------------------------------------------------

 SCF Done:  E(ROHF) =  -1050.10530544     A.U. after   37 cycles
 E2 =    -0.9679370376D+00 EUMP2 =    -0.10510732424795D+04
 CCSD(T)
 CCSD(T)= -0.10510831123D+04

 The electronic state is 6-SG.
 Alpha  occ. eigenvalues -- -222.10830 -26.69471 -22.32928 -22.32928 -22.32829
 Alpha  occ. eigenvalues --   -3.58222  -2.33390  -2.33390  -2.32628  -0.46319
 Alpha  occ. eigenvalues --   -0.45282  -0.45282  -0.42567  -0.42567  -0.25128
 Alpha virt. eigenvalues --    0.01780   0.01780   0.01847   0.02410   0.06216
 Alpha virt. eigenvalues --    0.06293   0.06293   0.07881   0.07881   0.08090
 Alpha virt. eigenvalues --    0.08119   0.08119   0.09938   0.19873   0.22323

 Mulliken charges and spin densities:
               1          2
     1  Cr   0.647186   5.019858
     2  H   -0.647186  -0.019858
 Sum of Mulliken charges =  -0.00000   5.00000

 Dipole moment (field-independent basis, Debye):
    X=              0.0000    Y=              0.0000    Z=              2.0227  Tot=              2.0227
 Quadrupole moment (field-independent basis, Debye-Ang):
   XX=            -16.9597   YY=            -16.9597   ZZ=            -19.0572
   XY=              0.0000   XZ=              0.0000   YZ=              0.0000

 \\#P ROCCSD(T)=(maxcyc=150, Full)/Gen 5d 7f SCF=(maxcycles=300) Integr
 Normal termination of Gaussian 16 at Tue Feb 13 17:59:03 2018.
