 Gaussian 16, Revision A.03,
 Gaussian 16:  ES64L-G16RevA.03 25-Dec-2016

 ----------------------------------------------------------------------
 #P ROCCSD(T)=(maxcyc=150, Full, SaveAmplitudes, ReadAmplitudes)/Gen 5d
  7f SCF=(maxcycles=300, VShift=400) Integral(NoXCTest) MaxDisk=500GB P
 op=Full Pseudo=Read Guess=Read IOp(5/15=2)
 ----------------------------------------------------------------------

 ---
 MnO
 ---
 Symbolic Z-matrix:
 Charge =  0 Multiplicity = 6

                         Standard orientation:
 ---------------------------------------------------------------------
 Center     Atomic      Atomic             Coordinates (Angstroms)
 Number     Number       Type             X           Y           Z
 ---------------------------------------------------------------------
      1         25           0        0.000000    0.000000    0.363636
      2          8           0        0.000000    0.000000   -1.136364
 ---------------------------------------------------------------------

 SCF Done:  E(ROHF) =  -119.062747955     A.U. after   67 cycles
 E2 =    -0.9236957671D+00 EUMP2 =    -0.11998644372237D+03
 CCSD(T)
 CCSD(T)= -0.12000102821D+03

 The electronic state is 6-SG.
 Alpha  occ. eigenvalues --   -4.15329  -2.79537  -2.79537  -2.77154  -1.19866
 Alpha  occ. eigenvalues --   -0.67948  -0.67948  -0.63701  -0.63701  -0.53418
 Alpha  occ. eigenvalues --   -0.38919  -0.38919  -0.33441
 Alpha virt. eigenvalues --   -0.00509   0.01975   0.01975   0.03266   0.03879
 Alpha virt. eigenvalues --    0.06876   0.06876   0.08657   0.08657   0.08794
 Alpha virt. eigenvalues --    0.09464   0.09464   0.13177   0.14634   0.23215

 Mulliken charges and spin densities:
               1          2
     1  Mn   1.021771   4.819520
     2  O   -1.021771   0.180480
 Sum of Mulliken charges =  -0.00000   5.00000

 Dipole moment (field-independent basis, Debye):
    X=              0.0000    Y=              0.0000    Z=              6.1509  Tot=              6.1509
 Quadrupole moment (field-independent basis, Debye-Ang):
   XX=            -19.3639   YY=            -19.3639   ZZ=            -22.8594
   XY=              0.0000   XZ=              0.0000   YZ=              0.0000

 \\#P ROCCSD(T)=(maxcyc=150, Full, SaveAmplitudes, ReadAmplitudes)/Gen
 Q=-119.9764032\CCSD=-119.9587898\CCSD(T)=-120.0010282\RMSD=9.332e-09\P
 Normal termination of Gaussian 16 at Sat Mar 24 23:30:54 2018.
