 Gaussian 16, Revision A.03,
 Gaussian 16:  ES64L-G16RevA.03 25-Dec-2016

 ----------------------------------------------------------------------
 #P ROCCSD(T)=(MaxCyc=150, Full)/Gen SCF=(maxcycle=400) Pseudo=Read Int
 egral(NoXCTest) Pop=Regular MaxDisk=500GB Guess=Read IOp(5/15=2)
 ----------------------------------------------------------------------

 ---
 ZnO
 ---
 Symbolic Z-matrix:
 Charge =  0 Multiplicity = 1

                         Standard orientation:
 ---------------------------------------------------------------------
 Center     Atomic      Atomic             Coordinates (Angstroms)
 Number     Number       Type             X           Y           Z
 ---------------------------------------------------------------------
      1         30           0        0.000000    0.000000    0.357895
      2          8           0        0.000000    0.000000   -1.342105
 ---------------------------------------------------------------------

 SCF Done:  E(ROHF) =  -241.657143464     A.U. after   11 cycles
 E2 =    -0.1400355829D+01 EUMP2 =    -0.24305749929335D+03
 CCSD(T)
 CCSD(T)= -0.24299485537D+03

 The electronic state is 1-SG.
 Alpha  occ. eigenvalues --   -5.92394  -3.99583  -3.99478  -3.99478  -1.17023
 Alpha  occ. eigenvalues --   -0.82765  -0.82765  -0.82221  -0.82221  -0.80418
 Alpha  occ. eigenvalues --   -0.40253  -0.40253  -0.37339
 Alpha virt. eigenvalues --   -0.04692   0.02371   0.02371   0.02426   0.04183
 Alpha virt. eigenvalues --    0.07691   0.07691   0.11890   0.16517   0.17481
 Alpha virt. eigenvalues --    0.17773   0.17773   0.20452   0.20452   0.23227

 Mulliken charges and spin densities:
               1          2
     1  Zn   0.940166   0.000000
     2  O   -0.940166   0.000000
 Sum of Mulliken charges =   0.00000   0.00000

 Dipole moment (field-independent basis, Debye):
    X=              0.0000    Y=              0.0000    Z=              7.0065  Tot=              7.0065
 Quadrupole moment (field-independent basis, Debye-Ang):
   XX=            -18.0776   YY=            -18.0776   ZZ=            -21.5876
   XY=              0.0000   XZ=              0.0000   YZ=              0.0000

 P ROCCSD(T)=(MaxCyc=150, Full)/Gen SCF=(maxcycle=400) Pseudo=Read Inte
 2-0=-243.0574993\MP4SDQ=-242.9868087\CCSD=-242.9438649\CCSD(T)=-242.99
 Normal termination of Gaussian 16 at Wed Mar 28 02:34:54 2018.
