 Gaussian 16, Revision A.03,
 Gaussian 16:  ES64L-G16RevA.03 25-Dec-2016

 ----------------------------------------------------------------------
 #P ROCCSD(T)=(MaxCyc=150, Full)/Gen SCF=(maxcycle=400) Pseudo=Read Int
 egral(NoXCTest) Pop=Regular MaxDisk=500GB Guess=Read IOp(5/15=2)
 ----------------------------------------------------------------------

 ---
 ZnO
 ---
 Symbolic Z-matrix:
 Charge =  0 Multiplicity = 1

                         Standard orientation:
 ---------------------------------------------------------------------
 Center     Atomic      Atomic             Coordinates (Angstroms)
 Number     Number       Type             X           Y           Z
 ---------------------------------------------------------------------
      1         30           0        0.000000    0.000000    0.357895
      2          8           0        0.000000    0.000000   -1.342105
 ---------------------------------------------------------------------

 SCF Done:  E(ROHF) =  -241.653648244     A.U. after    1 cycles
 E2 =    -0.1332638482D+01 EUMP2 =    -0.24298628672629D+03
 CCSD(T)
 CCSD(T)= -0.24292612062D+03

 The electronic state is 1-SG.
 Alpha  occ. eigenvalues --   -5.92411  -3.99611  -3.99499  -3.99499  -1.17077
 Alpha  occ. eigenvalues --   -0.82781  -0.82781  -0.82232  -0.82232  -0.80439
 Alpha  occ. eigenvalues --   -0.40238  -0.40238  -0.37359
 Alpha virt. eigenvalues --   -0.04706   0.02606   0.02606   0.02653   0.04661
 Alpha virt. eigenvalues --    0.08826   0.08826   0.13288   0.17555   0.21982
 Alpha virt. eigenvalues --    0.23584   0.23584   0.24660   0.24660   0.30028

 Mulliken charges and spin densities:
               1          2
     1  Zn   1.018296   0.000000
     2  O   -1.018296   0.000000
 Sum of Mulliken charges =  -0.00000   0.00000

 Dipole moment (field-independent basis, Debye):
    X=              0.0000    Y=              0.0000    Z=              7.0203  Tot=              7.0203
 Quadrupole moment (field-independent basis, Debye-Ang):
   XX=            -18.0914   YY=            -18.0914   ZZ=            -21.5880
   XY=              0.0000   XZ=              0.0000   YZ=              0.0000

 P ROCCSD(T)=(MaxCyc=150, Full)/Gen SCF=(maxcycle=400) Pseudo=Read Inte
 2-0=-242.9862867\MP4SDQ=-242.9215141\CCSD=-242.8776969\CCSD(T)=-242.92
 Normal termination of Gaussian 16 at Wed Mar 28 00:17:52 2018.
