 Gaussian 16, Revision A.03,
 Gaussian 16:  ES64L-G16RevA.03 25-Dec-2016

 ----------------------------------------------------------------------
 #P ROCCSD(T)=(maxcyc=150, Full, SaveAmplitudes, ReadAmplitudes)/Gen 5d
  7f SCF=(maxcycles=300) Integral(NoXCTest) MaxDisk=500GB Pop=Regular P
 seudo=Read Guess=Read
 ----------------------------------------------------------------------

 ---
 ScO
 ---
 Symbolic Z-matrix:
 Charge =  0 Multiplicity = 2

                         Standard orientation:
 ---------------------------------------------------------------------
 Center     Atomic      Atomic             Coordinates (Angstroms)
 Number     Number       Type             X           Y           Z
 ---------------------------------------------------------------------
      1         21           0        0.000000    0.000000    0.524138
      2          8           0        0.000000    0.000000   -1.375862
 ---------------------------------------------------------------------

 SCF Done:  E(ROHF) =  -62.0284070068     A.U. after   17 cycles
 E2 =    -0.7179191573D+00 EUMP2 =    -0.62746326164157D+02
 CCSD(T)
 CCSD(T)= -0.62776156813D+02

 The electronic state is 2-SG.
 Alpha  occ. eigenvalues --   -2.74974  -1.68837  -1.68775  -1.68775  -1.10887
 Alpha  occ. eigenvalues --   -0.40228  -0.36411  -0.36411  -0.27586
 Alpha virt. eigenvalues --   -0.00859  -0.00859   0.00780   0.01821   0.02573
 Alpha virt. eigenvalues --    0.02573   0.02608   0.02608   0.03266   0.03266
 Alpha virt. eigenvalues --    0.03439   0.03919   0.05340   0.05340   0.08832

 Mulliken charges and spin densities:
               1          2
     1  Sc   1.229472   0.982261
     2  O   -1.229472   0.017739
 Sum of Mulliken charges =  -0.00000   1.00000

 Dipole moment (field-independent basis, Debye):
    X=              0.0000    Y=              0.0000    Z=              6.7055  Tot=              6.7055
 Quadrupole moment (field-independent basis, Debye-Ang):
   XX=            -21.9333   YY=            -21.9333   ZZ=            -33.9078
   XY=              0.0000   XZ=              0.0000   YZ=              0.0000

 \\#P ROCCSD(T)=(maxcyc=150, Full, SaveAmplitudes, ReadAmplitudes)/Gen
 8407\PMP2-0=-62.7463262\CCSD=-62.7272007\CCSD(T)=-62.7761568\RMSD=1.90
 Normal termination of Gaussian 16 at Wed Feb 21 07:59:32 2018.
