 Gaussian 16, Revision A.03,
 Gaussian 16:  ES64L-G16RevA.03 25-Dec-2016

 ----------------------------------------------------------------------
 #P ROCCSD(T)=(maxcyc=150, Full, SaveAmplitudes, ReadAmplitudes)/Gen 5d
  7f SCF=(maxcycles=300, VShift=400) Integral(NoXCTest) MaxDisk=500GB P
 op=Full Pseudo=Read Guess=Read
 ----------------------------------------------------------------------

 ---
 MnH
 ---
 Symbolic Z-matrix:
 Charge =  0 Multiplicity = 7

                         Standard orientation:
 ---------------------------------------------------------------------
 Center     Atomic      Atomic             Coordinates (Angstroms)
 Number     Number       Type             X           Y           Z
 ---------------------------------------------------------------------
      1         25           0        0.000000    0.000000    0.050000
      2          1           0        0.000000    0.000000   -1.250000
 ---------------------------------------------------------------------

 SCF Done:  E(ROHF) =  -103.729860030     A.U. after   32 cycles
 E2 =    -0.6192753211D+00 EUMP2 =    -0.10434913535113D+03
 CCSD(T)
 CCSD(T)= -0.10436858147D+03

 The electronic state is 7-SG.
 Alpha  occ. eigenvalues --   -4.14221  -2.76523  -2.75991  -2.75991  -0.66615
 Alpha  occ. eigenvalues --   -0.63547  -0.63547  -0.63349  -0.63349  -0.41747
 Alpha  occ. eigenvalues --   -0.24273
 Alpha virt. eigenvalues --    0.01322   0.01322   0.01955   0.03130   0.05165
 Alpha virt. eigenvalues --    0.05165   0.05716   0.05831   0.05831   0.06172
 Alpha virt. eigenvalues --    0.06172   0.08352   0.13977   0.15106   0.17900

 Mulliken charges and spin densities:
               1          2
     1  Mn   0.455815   5.912244
     2  H   -0.455815   0.087756
 Sum of Mulliken charges =  -0.00000   6.00000

 Dipole moment (field-independent basis, Debye):
    X=              0.0000    Y=              0.0000    Z=             -0.0369  Tot=              0.0369
 Quadrupole moment (field-independent basis, Debye-Ang):
   XX=            -15.9712   YY=            -15.9712   ZZ=            -25.3606
   XY=              0.0000   XZ=              0.0000   YZ=              0.0000

 \\#P ROCCSD(T)=(maxcyc=150, Full, SaveAmplitudes, ReadAmplitudes)/Gen
 UHF=-103.72986\PMP2-0=-104.3491354\CCSD=-104.3508011\CCSD(T)=-104.3685
 Normal termination of Gaussian 16 at Sat May  5 07:13:20 2018.
