 Gaussian 16, Revision A.03,
 Gaussian 16:  ES64L-G16RevA.03 25-Dec-2016

 ----------------------------------------------------------------------
 #P ROCCSD(T)=(maxcyc=150, Full, SaveAmplitudes, ReadAmplitudes)/Gen 5d
  7f SCF=(maxcycles=300) Integral(NoXCTest) MaxDisk=500GB Pop=Regular P
 seudo=Read Guess=Read
 ----------------------------------------------------------------------

 ---
 CrH
 ---
 Symbolic Z-matrix:
 Charge =  0 Multiplicity = 6

                         Standard orientation:
 ---------------------------------------------------------------------
 Center     Atomic      Atomic             Coordinates (Angstroms)
 Number     Number       Type             X           Y           Z
 ---------------------------------------------------------------------
      1         24           0        0.000000    0.000000    0.048000
      2          1           0        0.000000    0.000000   -1.152000
 ---------------------------------------------------------------------

 SCF Done:  E(ROHF) =  -86.7848116129     A.U. after   31 cycles
 E2 =    -0.6153067163D+00 EUMP2 =    -0.87400118329217D+02
 CCSD(T)
 CCSD(T)= -0.87419821990D+02

 The electronic state is 6-SG.
 Alpha  occ. eigenvalues --   -3.65713  -2.35343  -2.35343  -2.34301  -0.46301
 Alpha  occ. eigenvalues --   -0.45410  -0.45410  -0.42658  -0.42658  -0.25344
 Alpha virt. eigenvalues --    0.01631   0.01731   0.01731   0.02286   0.04691
 Alpha virt. eigenvalues --    0.05490   0.05490   0.05527   0.05527   0.05899
 Alpha virt. eigenvalues --    0.05899   0.06066   0.09390   0.13301   0.16914

 Mulliken charges and spin densities:
               1          2
     1  Cr   0.348782   4.983194
     2  H   -0.348782   0.016806
 Sum of Mulliken charges =  -0.00000   5.00000

 Dipole moment (field-independent basis, Debye):
    X=              0.0000    Y=              0.0000    Z=              2.1317  Tot=              2.1317
 Quadrupole moment (field-independent basis, Debye-Ang):
   XX=            -16.4968   YY=            -16.4968   ZZ=            -18.5131
   XY=              0.0000   XZ=              0.0000   YZ=              0.0000

 \\#P ROCCSD(T)=(maxcyc=150, Full, SaveAmplitudes, ReadAmplitudes)/Gen
 848116\PMP2-0=-87.4001183\CCSD=-87.3980849\CCSD(T)=-87.419822\RMSD=7.7
 Normal termination of Gaussian 16 at Sun Feb 25 22:39:34 2018.
