 Gaussian 16, Revision A.03,
 Gaussian 16:  ES64L-G16RevA.03 25-Dec-2016

 ----------------------------------------------------------------------
 #P ROCCSD(T)=(maxcyc=150, Full, SaveAmplitudes, ReadAmplitudes)/Gen 5d
  7f SCF=(maxcycles=300) Integral(NoXCTest) MaxDisk=500GB Pop=Regular P
 seudo=Read Guess=Read IOp(5/15=2)
 ----------------------------------------------------------------------

 ---
 ScO
 ---
 Symbolic Z-matrix:
 Charge =  0 Multiplicity = 2

                         Standard orientation:
 ---------------------------------------------------------------------
 Center     Atomic      Atomic             Coordinates (Angstroms)
 Number     Number       Type             X           Y           Z
 ---------------------------------------------------------------------
      1         21           0        0.000000    0.000000    0.468966
      2          8           0        0.000000    0.000000   -1.231034
 ---------------------------------------------------------------------

 SCF Done:  E(ROHF) =  -62.0750243761     A.U. after   17 cycles
 E2 =    -0.6910177535D+00 EUMP2 =    -0.62766042129664D+02
 CCSD(T)
 CCSD(T)= -0.62795158068D+02

 The electronic state is 2-SG.
 Alpha  occ. eigenvalues --   -2.71835  -1.65761  -1.62945  -1.62945  -1.10901
 Alpha  occ. eigenvalues --   -0.42611  -0.40991  -0.40991  -0.25304
 Alpha virt. eigenvalues --   -0.00061  -0.00061   0.01451   0.02224   0.03521
 Alpha virt. eigenvalues --    0.03521   0.03578   0.03578   0.04203   0.04203
 Alpha virt. eigenvalues --    0.04388   0.05441   0.08123   0.08123   0.10511

 Mulliken charges and spin densities:
               1          2
     1  Sc   1.270629   0.974936
     2  O   -1.270629   0.025064
 Sum of Mulliken charges =   0.00000   1.00000

 Dipole moment (field-independent basis, Debye):
    X=              0.0000    Y=              0.0000    Z=              4.8728  Tot=              4.8728
 Quadrupole moment (field-independent basis, Debye-Ang):
   XX=            -21.8153   YY=            -21.8153   ZZ=            -32.6607
   XY=              0.0000   XZ=              0.0000   YZ=              0.0000

 \\#P ROCCSD(T)=(maxcyc=150, Full, SaveAmplitudes, ReadAmplitudes)/Gen
 69\CCSD=-62.7546133\CCSD(T)=-62.7951581\RMSD=4.238e-09\PG=C*V [C*(O1Sc
 Normal termination of Gaussian 16 at Wed Feb 28 18:59:32 2018.
