 Gaussian 16, Revision A.03,
 Gaussian 16:  ES64L-G16RevA.03 25-Dec-2016

 ----------------------------------------------------------------------
 #P ROCCSD(T)=(maxcyc=150, Full, SaveAmplitudes, ReadAmplitudes)/Gen 5d
  7f SCF=(maxcycles=300) Integral(NoXCTest) MaxDisk=500GB Pop=Regular P
 seudo=Read Guess=Read IOp(5/15=2)
 ----------------------------------------------------------------------

 ---
 MnH
 ---
 Symbolic Z-matrix:
 Charge =  0 Multiplicity = 7

                         Standard orientation:
 ---------------------------------------------------------------------
 Center     Atomic      Atomic             Coordinates (Angstroms)
 Number     Number       Type             X           Y           Z
 ---------------------------------------------------------------------
      1         25           0        0.000000    0.000000    0.069231
      2          1           0        0.000000    0.000000   -1.730769
 ---------------------------------------------------------------------

 SCF Done:  E(ROHF) =  -104.244654181     A.U. after   25 cycles
 E2 =    -0.5711901444D+00 EUMP2 =    -0.10481584432507D+03
 CCSD(T)
 CCSD(T)= -0.10483866432D+03

 The electronic state is 7-SG.
 Alpha  occ. eigenvalues --   -4.18114  -2.77087  -2.77087  -2.76853  -0.65605
 Alpha  occ. eigenvalues --   -0.65605  -0.65128  -0.64921  -0.64921  -0.40238
 Alpha  occ. eigenvalues --   -0.26395
 Alpha virt. eigenvalues --    0.01213   0.01213   0.02334   0.03115   0.05703
 Alpha virt. eigenvalues --    0.05703   0.08193   0.08443   0.08443   0.08924
 Alpha virt. eigenvalues --    0.08924   0.09973   0.13702   0.19188   0.22669

 Mulliken charges and spin densities:
               1          2
     1  Mn   0.429519   5.956876
     2  H   -0.429519   0.043124
 Sum of Mulliken charges =   0.00000   6.00000

 Dipole moment (field-independent basis, Debye):
    X=              0.0000    Y=              0.0000    Z=              1.6898  Tot=              1.6898
 Quadrupole moment (field-independent basis, Debye-Ang):
   XX=            -16.1888   YY=            -16.1888   ZZ=            -26.7499
   XY=              0.0000   XZ=              0.0000   YZ=              0.0000

 \\#P ROCCSD(T)=(maxcyc=150, Full, SaveAmplitudes, ReadAmplitudes)/Gen
 .8223122\CCSD=-104.8231503\CCSD(T)=-104.8386643\RMSD=3.519e-09\PG=C*V
 Normal termination of Gaussian 16 at Mon Feb 26 13:42:00 2018.
