 Gaussian 16, Revision A.03,
 Gaussian 16:  ES64L-G16RevA.03 25-Dec-2016

 ----------------------------------------------------------------------
 #P ROCCSD(T)=(maxcyc=150, Full)/Gen 5d 7f SCF=(maxcycles=300, NoVarAcc
 , VShift=200) MaxDisk=100GB Pop=Regular Pseudo=Read IOp(5/15=2)
 ----------------------------------------------------------------------

 --
 Cr
 --
 Symbolic Z-matrix:
 Charge =  0 Multiplicity = 7

                         Standard orientation:
 ---------------------------------------------------------------------
 Center     Atomic      Atomic             Coordinates (Angstroms)
 Number     Number       Type             X           Y           Z
 ---------------------------------------------------------------------
      1         24           0        0.000000    0.000000    0.000000
 ---------------------------------------------------------------------

 SCF Done:  E(ROHF) =  -86.3428923028     A.U. after   69 cycles
 E2 =    -0.5573064720D+00 EUMP2 =    -0.86900198774754D+02
 CCSD(T)
 CCSD(T)= -0.86909878346D+02

 The electronic state is 7-A1G.
 Alpha  occ. eigenvalues --   -3.59131  -2.29296  -2.29296  -2.29296  -0.36848
 Alpha  occ. eigenvalues --   -0.36848  -0.36848  -0.36848  -0.36848  -0.22742
 Alpha virt. eigenvalues --    0.01739   0.01739   0.01739   0.02408   0.05526
 Alpha virt. eigenvalues --    0.05526   0.05526   0.05526   0.05526   0.05976
 Alpha virt. eigenvalues --    0.05976   0.05976   0.12676   0.17968   0.17968

 Mulliken charges and spin densities:
               1          2
     1  Cr  -0.000000   6.000000
 Sum of Mulliken charges =  -0.00000   6.00000

 Dipole moment (field-independent basis, Debye):
    X=              0.0000    Y=              0.0000    Z=              0.0000  Tot=              0.0000
 Quadrupole moment (field-independent basis, Debye-Ang):
   XX=            -16.3015   YY=            -16.3015   ZZ=            -16.3015
   XY=              0.0000   XZ=              0.0000   YZ=             -0.0000

 1\1\GINC-C401-023\SP\ROCCSD(T)-Full\Gen\Cr1(7)\AANNABE\07-Mar-2018\0\\
 #P ROCCSD(T)=(maxcyc=150, Full)/Gen 5d 7f SCF=(maxcycles=300, NoVarAcc
 , VShift=200) MaxDisk=100GB Pop=Regular Pseudo=Read IOp(5/15=2)\\Cr\\0
 ,7\Cr,0,0.,0.,0.\\Version=ES64L-G16RevA.03\State=7-A1G\HF=-86.3428923\
 MP2=-86.9001988\MP3=-86.8897183\PUHF=-86.3428923\PMP2-0=-86.9001988\MP
 4SDQ=-86.8937942\CCSD=-86.8925562\CCSD(T)=-86.9098783\RMSD=4.639e-09\P
 G=OH [O(Cr1)]\\@

 Normal termination of Gaussian 16 at Wed Mar  7 17:37:34 2018.
