 Gaussian 16, Revision A.03,
 Gaussian 16:  ES64L-G16RevA.03 25-Dec-2016

 ----------------------------------------------------------------------
 #P ROCCSD(T)=(maxcyc=150, Full, SaveAmplitudes, ReadAmplitudes)/Gen 5d
  7f SCF=(maxcycles=300) Integral(NoXCTest) MaxDisk=500GB Pop=Regular P
 seudo=Read Guess=Read IOp(5/15=2)
 ----------------------------------------------------------------------

 ---
 TiO
 ---
 Symbolic Z-matrix:
 Charge =  0 Multiplicity = 3

                         Standard orientation:
 ---------------------------------------------------------------------
 Center     Atomic      Atomic             Coordinates (Angstroms)
 Number     Number       Type             X           Y           Z
 ---------------------------------------------------------------------
      1         22           0        0.000000    0.000000    0.320000
      2          8           0        0.000000    0.000000   -0.880000
 ---------------------------------------------------------------------

 SCF Done:  E(ROHF) =  -73.0360428876     A.U. after   23 cycles
 E2 =    -0.7209319157D+00 EUMP2 =    -0.73756974803262D+02
 CCSD(T)
 CCSD(T)= -0.73782853874D+02

 Unable to determine electronic state:  an orbital has unidentified symmetry.
 Alpha  occ. eigenvalues --   -2.94654  -2.02049  -1.80991  -1.80991  -1.12147
 Alpha  occ. eigenvalues --   -0.65806  -0.65806  -0.54628  -0.32718  -0.19946
 Alpha virt. eigenvalues --    0.01269   0.01269   0.02089   0.02814   0.04919
 Alpha virt. eigenvalues --    0.04919   0.05029   0.05199   0.05364   0.05753
 Alpha virt. eigenvalues --    0.05753   0.08501   0.12387   0.14268   0.14856

 Mulliken charges and spin densities:
               1          2
     1  Ti   0.596378   2.061380
     2  O   -0.596378  -0.061380
 Sum of Mulliken charges =  -0.00000   2.00000

 Dipole moment (field-independent basis, Debye):
    X=              0.0000    Y=              0.0000    Z=             -0.7315  Tot=              0.7315
 Quadrupole moment (field-independent basis, Debye-Ang):
   XX=            -22.5987   YY=            -22.5987   ZZ=            -26.5229
   XY=              0.0000   XZ=              0.0000   YZ=              0.0000

 \\#P ROCCSD(T)=(maxcyc=150, Full, SaveAmplitudes, ReadAmplitudes)/Gen
 .75163\CCSD(T)=-73.7828539\RMSD=2.940e-09\PG=C*V [C*(O1Ti1)]\\@
 Normal termination of Gaussian 16 at Fri Mar  9 15:14:02 2018.
