 Gaussian 16, Revision A.03,
 Gaussian 16:  ES64L-G16RevA.03 25-Dec-2016

 ----------------------------------------------------------------------
 #P ROCCSD(T)=(maxcyc=150, Window=(7,0), SaveAmplitudes, ReadAmplitudes
 )/Gen 5d 7f SCF=(maxcycles=300) Integral(NoXCTest, DKHSO) MaxDisk=500G
 B Pop=Regular Guess=Read
 ----------------------------------------------------------------------

 ---
 ScO
 ---
 Symbolic Z-matrix:
 Charge =  0 Multiplicity = 2

                         Standard orientation:
 ---------------------------------------------------------------------
 Center     Atomic      Atomic             Coordinates (Angstroms)
 Number     Number       Type             X           Y           Z
 ---------------------------------------------------------------------
      1         21           0        0.000000    0.000000    0.331034
      2          8           0        0.000000    0.000000   -0.868966
 ---------------------------------------------------------------------

 SCF Done:  E(ROHF) =  -837.959128395     A.U. after   16 cycles
 E2 =    -0.6633442172D+00 EUMP2 =    -0.83862247261169D+03
 CCSD(T)
 CCSD(T)= -0.83864642906D+03

 The electronic state is 2-SG.
 Alpha  occ. eigenvalues -- -166.70671 -20.60149 -19.12610 -15.55177 -15.55177
 Alpha  occ. eigenvalues --  -15.55015  -2.59990  -1.80760  -1.51581  -1.51581
 Alpha  occ. eigenvalues --   -1.03347  -0.63689  -0.63689  -0.47519  -0.17912
 Alpha virt. eigenvalues --    0.00995   0.00995   0.01649   0.02535   0.02824
 Alpha virt. eigenvalues --    0.02824   0.02860   0.02860   0.02886   0.04344
 Alpha virt. eigenvalues --    0.04344   0.06519   0.08155   0.08155   0.08390

 Mulliken charges and spin densities:
               1          2
     1  Sc   0.802024   1.015553
     2  O   -0.802024  -0.015553
 Sum of Mulliken charges =  -0.00000   1.00000

 Dipole moment (field-independent basis, Debye):
    X=              0.0000    Y=              0.0000    Z=             -1.2033  Tot=              1.2033
 Quadrupole moment (field-independent basis, Debye-Ang):
   XX=            -23.9431   YY=            -23.9431   ZZ=            -29.5068
   XY=              0.0000   XZ=              0.0000   YZ=              0.0000

 1\1\GINC-C483-111\SP\ROCCSD(T)-RW\Gen\O1Sc1(2)\AANNABE\20-Feb-2018\0\\
 #P ROCCSD(T)=(maxcyc=150, Window=(7,0), SaveAmplitudes, ReadAmplitudes
 )/Gen 5d 7f SCF=(maxcycles=300) Integral(NoXCTest, DKHSO) MaxDisk=500G
 B Pop=Regular Guess=Read\\ScO\\0,2\Sc,0,0.,0.,0.\O,0,0.,0.,1.2\\Versio
 n=ES64L-G16RevA.03\State=2-SG\HF=-837.9591284\MP2=-838.6224726\PUHF=-8
 37.9591284\PMP2-0=-838.6224726\CCSD=-838.6191584\CCSD(T)=-838.6464291\
 RMSD=2.197e-09\PG=C*V [C*(O1Sc1)]\\@

 Normal termination of Gaussian 16 at Tue Feb 20 21:00:01 2018.
