 Gaussian 16, Revision A.03,
 Gaussian 16:  ES64L-G16RevA.03 25-Dec-2016

 ----------------------------------------------------------------------
 #P ROCCSD(T)=(MaxCyc=150, Full)/Gen SCF=(maxcycle=400) Pseudo=Read Int
 egral(NoXCTest) Pop=Regular MaxDisk=500GB Guess=Read IOp(5/15=2)
 ----------------------------------------------------------------------

 ---
 ZnO
 ---
 Symbolic Z-matrix:
 Charge =  0 Multiplicity = 1

                         Standard orientation:
 ---------------------------------------------------------------------
 Center     Atomic      Atomic             Coordinates (Angstroms)
 Number     Number       Type             X           Y           Z
 ---------------------------------------------------------------------
      1         30           0        0.000000    0.000000    0.252632
      2          8           0        0.000000    0.000000   -0.947368
 ---------------------------------------------------------------------

 SCF Done:  E(ROHF) =  -241.311916671     A.U. after   11 cycles
 E2 =    -0.1447819745D+01 EUMP2 =    -0.24275973641601D+03
 CCSD(T)
 CCSD(T)= -0.24268543476D+03

 The electronic state is 1-SG.
 Alpha  occ. eigenvalues --   -5.67391  -3.99872  -3.94611  -3.94611  -1.33891
 Alpha  occ. eigenvalues --   -0.94322  -0.94322  -0.85460  -0.85460  -0.82164
 Alpha  occ. eigenvalues --   -0.46023  -0.46023  -0.38102
 Alpha virt. eigenvalues --   -0.00957   0.02915   0.02915   0.03635   0.04104
 Alpha virt. eigenvalues --    0.09478   0.09478   0.12373   0.17303   0.17961
 Alpha virt. eigenvalues --    0.18661   0.18661   0.18676   0.18676   0.23123

 Mulliken charges and spin densities:
               1          2
     1  Zn   1.018184   0.000000
     2  O   -1.018184   0.000000
 Sum of Mulliken charges =  -0.00000   0.00000

 Dipole moment (field-independent basis, Debye):
    X=              0.0000    Y=              0.0000    Z=              4.4559  Tot=              4.4559
 Quadrupole moment (field-independent basis, Debye-Ang):
   XX=            -18.0712   YY=            -18.0712   ZZ=            -19.0144
   XY=              0.0000   XZ=              0.0000   YZ=              0.0000

 P ROCCSD(T)=(MaxCyc=150, Full)/Gen SCF=(maxcycle=400) Pseudo=Read Inte
 2-0=-242.7597364\MP4SDQ=-242.6799436\CCSD=-242.6348956\CCSD(T)=-242.68
 Normal termination of Gaussian 16 at Tue Mar 27 13:48:17 2018.
