 Gaussian 16, Revision A.03,
 Gaussian 16:  ES64L-G16RevA.03 25-Dec-2016

 ----------------------------------------------------------------------
 #P ROCCSD(T)=(MaxCyc=150, Full)/Gen SCF=(maxcycle=400) Pseudo=Read Int
 egral(NoXCTest) Pop=Regular MaxDisk=500GB Guess=Read IOp(5/15=2)
 ----------------------------------------------------------------------

 ---
 ZnO
 ---
 Symbolic Z-matrix:
 Charge =  0 Multiplicity = 1

                         Standard orientation:
 ---------------------------------------------------------------------
 Center     Atomic      Atomic             Coordinates (Angstroms)
 Number     Number       Type             X           Y           Z
 ---------------------------------------------------------------------
      1         30           0        0.000000    0.000000    0.252632
      2          8           0        0.000000    0.000000   -0.947368
 ---------------------------------------------------------------------

 SCF Done:  E(ROHF) =  -241.308064097     A.U. after    1 cycles
 E2 =    -0.1379027961D+01 EUMP2 =    -0.24268709205824D+03
 CCSD(T)
 CCSD(T)= -0.24261492425D+03

 The electronic state is 1-SG.
 Alpha  occ. eigenvalues --   -5.67433  -3.99909  -3.94638  -3.94638  -1.33948
 Alpha  occ. eigenvalues --   -0.94324  -0.94324  -0.85466  -0.85466  -0.82179
 Alpha  occ. eigenvalues --   -0.46015  -0.46015  -0.38125
 Alpha virt. eigenvalues --   -0.00957   0.03255   0.03255   0.04066   0.04354
 Alpha virt. eigenvalues --    0.10895   0.10895   0.13546   0.19290   0.20944
 Alpha virt. eigenvalues --    0.21795   0.21795   0.25761   0.25761   0.30770

 Mulliken charges and spin densities:
               1          2
     1  Zn   1.284081   0.000000
     2  O   -1.284081   0.000000
 Sum of Mulliken charges =   0.00000   0.00000

 Dipole moment (field-independent basis, Debye):
    X=              0.0000    Y=              0.0000    Z=              4.4691  Tot=              4.4691
 Quadrupole moment (field-independent basis, Debye-Ang):
   XX=            -18.0785   YY=            -18.0785   ZZ=            -19.0252
   XY=              0.0000   XZ=              0.0000   YZ=              0.0000

 P ROCCSD(T)=(MaxCyc=150, Full)/Gen SCF=(maxcycle=400) Pseudo=Read Inte
 2-0=-242.6870921\MP4SDQ=-242.6131309\CCSD=-242.5669943\CCSD(T)=-242.61
 Normal termination of Gaussian 16 at Tue Mar 27 11:33:10 2018.
