 Gaussian 16, Revision A.03,
 Gaussian 16:  ES64L-G16RevA.03 25-Dec-2016

 ----------------------------------------------------------------------
 #P ROCCSD(T)=(maxcyc=150, Full, SaveAmplitudes, ReadAmplitudes)/Gen 5d
  7f SCF=(maxcycles=300) Integral(NoXCTest) MaxDisk=500GB Pop=Regular P
 seudo=Read Guess=Read
 ----------------------------------------------------------------------

 ---
 CrO
 ---
 Symbolic Z-matrix:
 Charge =  0 Multiplicity = 5

                         Standard orientation:
 ---------------------------------------------------------------------
 Center     Atomic      Atomic             Coordinates (Angstroms)
 Number     Number       Type             X           Y           Z
 ---------------------------------------------------------------------
      1         24           0        0.000000    0.000000    0.400000
      2          8           0        0.000000    0.000000   -1.200000
 ---------------------------------------------------------------------

 SCF Done:  E(ROHF) =  -101.856667159     A.U. after   24 cycles
 E2 =    -0.9149225365D+00 EUMP2 =    -0.10277158969532D+03
 CCSD(T)
 CCSD(T)= -0.10279628645D+03

 Unable to determine electronic state:  an orbital has unidentified symmetry.
 Alpha  occ. eigenvalues --   -3.77584  -2.52988  -2.49064  -2.45760  -1.17841
 Alpha  occ. eigenvalues --   -0.61707  -0.58244  -0.56994  -0.48017  -0.43163
 Alpha  occ. eigenvalues --   -0.38629  -0.31820
 Alpha virt. eigenvalues --   -0.00232   0.00524   0.01537   0.02652   0.03499
 Alpha virt. eigenvalues --    0.04054   0.05311   0.05312   0.05443   0.05796
 Alpha virt. eigenvalues --    0.05856   0.06312   0.10788   0.12599   0.12704

 Mulliken charges and spin densities:
               1          2
     1  Cr   1.044843   3.899099
     2  O   -1.044843   0.100901
 Sum of Mulliken charges =   0.00000   4.00000

 Dipole moment (field-independent basis, Debye):
    X=              0.0000    Y=              0.0000    Z=              6.1155  Tot=              6.1155
 Quadrupole moment (field-independent basis, Debye-Ang):
   XX=            -20.6712   YY=            -19.5827   ZZ=            -23.9921
   XY=              0.0000   XZ=              0.0000   YZ=              0.0000

 \\#P ROCCSD(T)=(maxcyc=150, Full, SaveAmplitudes, ReadAmplitudes)/Gen
 MP2-0=-102.7715897\CCSD=-102.7444341\CCSD(T)=-102.7962865\RMSD=6.791e-
 Normal termination of Gaussian 16 at Fri Mar  9 17:59:48 2018.
