 Gaussian 16, Revision A.03,
 Gaussian 16:  ES64L-G16RevA.03 25-Dec-2016

 ----------------------------------------------------------------------
 #P ROCCSD(T)=(maxcyc=150, Full, SaveAmplitudes, ReadAmplitudes)/Gen 5d
  7f SCF=(maxcycles=300) Integral(NoXCTest) MaxDisk=500GB Pop=Regular P
 seudo=Read Guess=Read IOp(5/15=2)
 ----------------------------------------------------------------------

 ---
 MnH
 ---
 Symbolic Z-matrix:
 Charge =  0 Multiplicity = 7

                         Standard orientation:
 ---------------------------------------------------------------------
 Center     Atomic      Atomic             Coordinates (Angstroms)
 Number     Number       Type             X           Y           Z
 ---------------------------------------------------------------------
      1         25           0        0.000000    0.000000    0.061538
      2          1           0        0.000000    0.000000   -1.538462
 ---------------------------------------------------------------------

 SCF Done:  E(ROHF) =  -104.246559904     A.U. after   27 cycles
 E2 =    -0.5884570999D+00 EUMP2 =    -0.10483501700347D+03
 CCSD(T)
 CCSD(T)= -0.10485797583D+03

 The electronic state is 7-SG.
 Alpha  occ. eigenvalues --   -4.09554  -2.75683  -2.75683  -2.75682  -0.63955
 Alpha  occ. eigenvalues --   -0.63722  -0.63722  -0.63064  -0.63064  -0.41386
 Alpha  occ. eigenvalues --   -0.25926
 Alpha virt. eigenvalues --    0.01269   0.01269   0.02298   0.03156   0.05718
 Alpha virt. eigenvalues --    0.05718   0.08396   0.08498   0.08498   0.08961
 Alpha virt. eigenvalues --    0.08961   0.09579   0.14034   0.20227   0.22549

 Mulliken charges and spin densities:
               1          2
     1  Mn   0.436269   5.961295
     2  H   -0.436269   0.038705
 Sum of Mulliken charges =  -0.00000   6.00000

 Dipole moment (field-independent basis, Debye):
    X=              0.0000    Y=              0.0000    Z=              0.9427  Tot=              0.9427
 Quadrupole moment (field-independent basis, Debye-Ang):
   XX=            -15.9870   YY=            -15.9870   ZZ=            -25.7883
   XY=              0.0000   XZ=              0.0000   YZ=              0.0000

 \\#P ROCCSD(T)=(maxcyc=150, Full, SaveAmplitudes, ReadAmplitudes)/Gen
 10177\CCSD=-104.8417199\CCSD(T)=-104.8579758\RMSD=4.016e-09\PG=C*V [C*
 Normal termination of Gaussian 16 at Mon Feb 26 08:33:59 2018.
