 Gaussian 16, Revision A.03,
 Gaussian 16:  ES64L-G16RevA.03 25-Dec-2016

 ----------------------------------------------------------------------
 #P ROCCSD(T)=(MaxCyc=150, Full)/Gen SCF=(maxcycle=400, vshift=200) Pse
 udo=Read Integral(NoXCTest) Pop=Regular MaxDisk=500GB Guess=Read IOp(5
 /15=2)
 ----------------------------------------------------------------------

 ---
 FeH
 ---
 Symbolic Z-matrix:
 Charge =  0 Multiplicity = 4

                         Standard orientation:
 ---------------------------------------------------------------------
 Center     Atomic      Atomic             Coordinates (Angstroms)
 Number     Number       Type             X           Y           Z
 ---------------------------------------------------------------------
      1         26           0        0.000000    0.000000    0.055556
      2          1           0        0.000000    0.000000   -1.444444
 ---------------------------------------------------------------------

 SCF Done:  E(ROHF) =  -123.290419164     A.U. after   29 cycles
 E2 =    -0.8106806200D+00 EUMP2 =    -0.12410109978398D+03
 CCSD(T)
 CCSD(T)= -0.12409941111D+03

 Unable to determine electronic state:  partially filled degenerate orbitals.
 Alpha  occ. eigenvalues --   -4.17819  -2.80006  -2.79149  -2.79149  -0.50852
 Alpha  occ. eigenvalues --   -0.50852  -0.49806  -0.46396  -0.44866  -0.31645
 Alpha virt. eigenvalues --   -0.00265   0.02221   0.02221   0.02864   0.04056
 Alpha virt. eigenvalues --    0.06232   0.06805   0.06818   0.06851   0.06851
 Alpha virt. eigenvalues --    0.07698   0.07698   0.09731   0.16661   0.17911

 Mulliken charges and spin densities:
               1          2
     1  Fe   0.294614   2.995418
     2  H   -0.294614   0.004582
 Sum of Mulliken charges =  -0.00000   3.00000

 Dipole moment (field-independent basis, Debye):
    X=              0.0000    Y=              0.0000    Z=              4.1333  Tot=              4.1333
 Quadrupole moment (field-independent basis, Debye-Ang):
   XX=            -15.8154   YY=            -15.8154   ZZ=            -16.9156
   XY=              0.0000   XZ=              0.0000   YZ=              0.0000

 \\#P ROCCSD(T)=(MaxCyc=150, Full)/Gen SCF=(maxcycle=400, vshift=200) P
 \PMP2-0=-124.1010998\MP4SDQ=-124.0787224\CCSD=-124.069163\CCSD(T)=-124
 Normal termination of Gaussian 16 at Sat Mar 24 01:22:52 2018.
