 Gaussian 16, Revision A.03,
 Gaussian 16:  ES64L-G16RevA.03 25-Dec-2016

 ----------------------------------------------------------------------
 #P ROCCSD(T)=(MaxCyc=150, Full)/Gen SCF=(maxcycle=400, vshift=200) Pse
 udo=Read Integral(NoXCTest) Pop=Regular MaxDisk=500GB Guess=Read IOp(5
 /15=2)
 ----------------------------------------------------------------------

 ---
 FeH
 ---
 Symbolic Z-matrix:
 Charge =  0 Multiplicity = 4

                         Standard orientation:
 ---------------------------------------------------------------------
 Center     Atomic      Atomic             Coordinates (Angstroms)
 Number     Number       Type             X           Y           Z
 ---------------------------------------------------------------------
      1         26           0        0.000000    0.000000    0.055556
      2          1           0        0.000000    0.000000   -1.444444
 ---------------------------------------------------------------------

 SCF Done:  E(ROHF) =  -123.290583355     A.U. after   18 cycles
 E2 =    -0.8249309988D+00 EUMP2 =    -0.12411551435362D+03
 CCSD(T)
 CCSD(T)= -0.12411173634D+03

 Unable to determine electronic state:  an orbital has unidentified symmetry.
 Alpha  occ. eigenvalues --   -4.17815  -2.80001  -2.79144  -2.79144  -0.50848
 Alpha  occ. eigenvalues --   -0.50848  -0.49802  -0.46397  -0.44868  -0.31646
 Alpha virt. eigenvalues --   -0.00297   0.02154   0.02154   0.02556   0.03497
 Alpha virt. eigenvalues --    0.05798   0.06232   0.06242   0.06331   0.06331
 Alpha virt. eigenvalues --    0.07350   0.07350   0.08520   0.13009   0.16883

 Mulliken charges and spin densities:
               1          2
     1  Fe   0.277516   2.994809
     2  H   -0.277516   0.005191
 Sum of Mulliken charges =  -0.00000   3.00000

 Dipole moment (field-independent basis, Debye):
    X=              0.0000    Y=              0.0000    Z=              4.1331  Tot=              4.1331
 Quadrupole moment (field-independent basis, Debye-Ang):
   XX=            -15.8132   YY=            -15.8132   ZZ=            -16.9181
   XY=              0.0000   XZ=              0.0000   YZ=              0.0000

 \\#P ROCCSD(T)=(MaxCyc=150, Full)/Gen SCF=(maxcycle=400, vshift=200) P
 \PMP2-0=-124.1155144\MP4SDQ=-124.0904648\CCSD=-124.0809184\CCSD(T)=-12
 Normal termination of Gaussian 16 at Sat Mar 24 03:16:47 2018.
