 Gaussian 16, Revision A.03,
 Gaussian 16:  ES64L-G16RevA.03 25-Dec-2016

 ----------------------------------------------------------------------
 #P ROCCSD(T)=(MaxCyc=150, Full)/Gen SCF=(maxcycle=400, vshift=200) Pse
 udo=Read Integral(NoXCTest) Pop=Regular MaxDisk=500GB Guess=Read IOp(5
 /15=2)
 ----------------------------------------------------------------------

 ---
 FeH
 ---
 Symbolic Z-matrix:
 Charge =  0 Multiplicity = 4

                         Standard orientation:
 ---------------------------------------------------------------------
 Center     Atomic      Atomic             Coordinates (Angstroms)
 Number     Number       Type             X           Y           Z
 ---------------------------------------------------------------------
      1         26           0        0.000000    0.000000    0.055556
      2          1           0        0.000000    0.000000   -1.444444
 ---------------------------------------------------------------------

 SCF Done:  E(ROHF) =  -123.289000091     A.U. after    1 cycles
 E2 =    -0.7750006047D+00 EUMP2 =    -0.12406400069588D+03
 CCSD(T)
 CCSD(T)= -0.12406450828D+03

 Unable to determine electronic state:  an orbital has unidentified symmetry.
 Alpha  occ. eigenvalues --   -4.17842  -2.80027  -2.79167  -2.79167  -0.50852
 Alpha  occ. eigenvalues --   -0.50852  -0.49804  -0.46390  -0.44862  -0.31644
 Alpha virt. eigenvalues --   -0.00244   0.02452   0.02452   0.03136   0.04308
 Alpha virt. eigenvalues --    0.08419   0.08419   0.09609   0.10262   0.10300
 Alpha virt. eigenvalues --    0.10382   0.10382   0.10668   0.17091   0.24134

 Mulliken charges and spin densities:
               1          2
     1  Fe   0.422946   2.997127
     2  H   -0.422946   0.002873
 Sum of Mulliken charges =  -0.00000   3.00000

 Dipole moment (field-independent basis, Debye):
    X=              0.0000    Y=              0.0000    Z=              4.1377  Tot=              4.1377
 Quadrupole moment (field-independent basis, Debye-Ang):
   XX=            -15.8280   YY=            -15.8280   ZZ=            -16.9066
   XY=              0.0000   XZ=              0.0000   YZ=              0.0000

 \\#P ROCCSD(T)=(MaxCyc=150, Full)/Gen SCF=(maxcycle=400, vshift=200) P
 \PMP2-0=-124.0640007\MP4SDQ=-124.0453421\CCSD=-124.035872\CCSD(T)=-124
 Normal termination of Gaussian 16 at Sat Mar 24 00:38:04 2018.
