 Gaussian 16, Revision A.03,
 Gaussian 16:  ES64L-G16RevA.03 25-Dec-2016

 ----------------------------------------------------------------------
 #P ROCCSD(T)=(maxcyc=150, Window=(7,0), SaveAmplitudes, ReadAmplitudes
 )/Gen 5d 7f SCF=(maxcycles=300) Integral(NoXCTest, DKHSO) MaxDisk=500G
 B Pop=Regular Guess=Read IOp(5/15=2)
 ----------------------------------------------------------------------

 ---
 ScO
 ---
 Symbolic Z-matrix:
 Charge =  0 Multiplicity = 2

                         Standard orientation:
 ---------------------------------------------------------------------
 Center     Atomic      Atomic             Coordinates (Angstroms)
 Number     Number       Type             X           Y           Z
 ---------------------------------------------------------------------
      1         21           0        0.000000    0.000000    0.551724
      2          8           0        0.000000    0.000000   -1.448276
 ---------------------------------------------------------------------

 SCF Done:  E(ROHF) =  -838.205994128     A.U. after   18 cycles
 E2 =    -0.6706771449D+00 EUMP2 =    -0.83887667127297D+03
 CCSD(T)
 CCSD(T)= -0.83890806334D+03

 The electronic state is 2-SG.
 Alpha  occ. eigenvalues -- -166.96543 -20.47201 -19.42003 -15.84184 -15.84184
 Alpha  occ. eigenvalues --  -15.84046  -2.72504  -1.70351  -1.70351  -1.69788
 Alpha  occ. eigenvalues --   -1.08520  -0.38966  -0.34641  -0.34641  -0.28378
 Alpha virt. eigenvalues --   -0.01330  -0.01330   0.00580   0.01738   0.02825
 Alpha virt. eigenvalues --    0.02825   0.03136   0.03136   0.03746   0.04382
 Alpha virt. eigenvalues --    0.04382   0.04993   0.05223   0.05223   0.09662

 Mulliken charges and spin densities:
               1          2
     1  Sc   1.197545   0.977760
     2  O   -1.197545   0.022240
 Sum of Mulliken charges =  -0.00000   1.00000

 Dipole moment (field-independent basis, Debye):
    X=              0.0000    Y=              0.0000    Z=              7.4672  Tot=              7.4672
 Quadrupole moment (field-independent basis, Debye-Ang):
   XX=            -22.5825   YY=            -22.5825   ZZ=            -35.4678
   XY=              0.0000   XZ=              0.0000   YZ=              0.0000

 1\1\GINC-C483-121\SP\ROCCSD(T)-RW\Gen\O1Sc1(2)\AANNABE\20-Feb-2018\0\\
 #P ROCCSD(T)=(maxcyc=150, Window=(7,0), SaveAmplitudes, ReadAmplitudes
 )/Gen 5d 7f SCF=(maxcycles=300) Integral(NoXCTest, DKHSO) MaxDisk=500G
 B Pop=Regular Guess=Read IOp(5/15=2)\\ScO\\0,2\Sc,0,0.,0.,0.\O,0,0.,0.
 ,2.\\Version=ES64L-G16RevA.03\State=2-SG\HF=-838.2059941\MP2=-838.8766
 713\MP3=-838.8278668\PUHF=-838.2059941\PMP2-0=-838.8766713\MP4SDQ=-838
 .9012196\CCSD=-838.8584774\CCSD(T)=-838.9080633\RMSD=1.871e-09\PG=C*V
 [C*(O1Sc1)]\\@

 Normal termination of Gaussian 16 at Tue Feb 20 20:31:37 2018.
