 Gaussian 16, Revision A.03,
 Gaussian 16:  ES64L-G16RevA.03 25-Dec-2016

 ----------------------------------------------------------------------
 #P ROCCSD(T)=(maxcyc=150, Full)/Gen 5d 7f SCF=(maxcycles=300) Integral
 (NoXCTest) MaxDisk=500GB Pop=Regular Pseudo=Read Guess=Read
 ----------------------------------------------------------------------

 ---
 CrH
 ---
 Symbolic Z-matrix:
 Charge =  0 Multiplicity = 6

                         Standard orientation:
 ---------------------------------------------------------------------
 Center     Atomic      Atomic             Coordinates (Angstroms)
 Number     Number       Type             X           Y           Z
 ---------------------------------------------------------------------
      1         24           0        0.000000    0.000000    0.084000
      2          1           0        0.000000    0.000000   -2.016000
 ---------------------------------------------------------------------

 SCF Done:  E(ROHF) =  -86.6789961470     A.U. after   22 cycles
 E2 =    -0.5528136488D+00 EUMP2 =    -0.87231809795819D+02
 CCSD(T)
 CCSD(T)= -0.87245329012D+02

 The electronic state is 6-SG.
 Alpha  occ. eigenvalues --   -3.76250  -2.51729  -2.51729  -2.46703  -0.58753
 Alpha  occ. eigenvalues --   -0.58753  -0.55181  -0.55181  -0.36945  -0.27040
 Alpha virt. eigenvalues --    0.00851   0.00851   0.01680   0.02379   0.04199
 Alpha virt. eigenvalues --    0.04459   0.04459   0.04857   0.04857   0.05235
 Alpha virt. eigenvalues --    0.05235   0.06111   0.08629   0.10835   0.14822

 Mulliken charges and spin densities:
               1          2
     1  Cr   0.348684   4.966889
     2  H   -0.348684   0.033111
 Sum of Mulliken charges =  -0.00000   5.00000

 Dipole moment (field-independent basis, Debye):
    X=              0.0000    Y=              0.0000    Z=              3.2963  Tot=              3.2963
 Quadrupole moment (field-independent basis, Debye-Ang):
   XX=            -17.3427   YY=            -17.3427   ZZ=            -27.8668
   XY=              0.0000   XZ=              0.0000   YZ=              0.0000

 \\#P ROCCSD(T)=(maxcyc=150, Full)/Gen 5d 7f SCF=(maxcycles=300) Integr
 7.2318098\MP4SDQ=-87.244915\CCSD=-87.232116\CCSD(T)=-87.245329\RMSD=2.
 Normal termination of Gaussian 16 at Tue Feb 13 18:26:31 2018.
