 Gaussian 16, Revision A.03,
 Gaussian 16:  ES64L-G16RevA.03 25-Dec-2016

 ----------------------------------------------------------------------
 #P ROCCSD(T)=(maxcyc=150, FrzINGC)/Gen 5d 7f SCF=(maxcycles=300, NoVar
 Acc, VShift=200) Integral(NoXCTest, DKHSO) MaxDisk=100GB Pop=Regular G
 uess=(Huckel, Permute) IOp(5/15=2)
 ----------------------------------------------------------------------

 --
 Mn
 --
 Symbolic Z-matrix:
 Charge =  0 Multiplicity = 6

                         Standard orientation:
 ---------------------------------------------------------------------
 Center     Atomic      Atomic             Coordinates (Angstroms)
 Number     Number       Type             X           Y           Z
 ---------------------------------------------------------------------
      1         25           0        0.000000    0.000000    0.000000
 ---------------------------------------------------------------------

 SCF Done:  E(ROHF) =  -1157.39143673     A.U. after   32 cycles
 E2 =    -0.5927088320D+00 EUMP2 =    -0.11579841455627D+04
 CCSD(T)
 CCSD(T)= -0.11579957669D+04

 Unable to determine electronic state:  an orbital has unidentified symmetry.
 Alpha  occ. eigenvalues -- -242.48895 -29.59057 -24.94473 -24.94473 -24.94473
 Alpha  occ. eigenvalues --   -4.08021  -2.73253  -2.73253  -2.73253  -0.62578
 Alpha  occ. eigenvalues --   -0.62578  -0.62578  -0.62578  -0.62578  -0.26781
 Alpha virt. eigenvalues --    0.01719   0.01719   0.01719   0.02126   0.05598
 Alpha virt. eigenvalues --    0.05598   0.05598   0.05598   0.05598   0.05633
 Alpha virt. eigenvalues --    0.05633   0.05633   0.10436   0.17439   0.17439

 Mulliken charges and spin densities:
               1          2
     1  Mn  -0.000000   5.000000
 Sum of Mulliken charges =  -0.00000   5.00000

 Dipole moment (field-independent basis, Debye):
    X=             -0.0000    Y=              0.0000    Z=             -0.0000  Tot=              0.0000
 Quadrupole moment (field-independent basis, Debye-Ang):
   XX=            -19.1011   YY=            -19.1011   ZZ=            -19.1011
   XY=              0.0000   XZ=              0.0000   YZ=             -0.0000

 P ROCCSD(T)=(maxcyc=150, FrzINGC)/Gen 5d 7f SCF=(maxcycles=300, NoVarA
 -1157.9841456\MP4SDQ=-1157.978425\CCSD=-1157.9780055\CCSD(T)=-1157.995
 Normal termination of Gaussian 16 at Mon Mar 12 14:38:34 2018.
