 Gaussian 16, Revision A.03,
 Gaussian 16:  ES64L-G16RevA.03 25-Dec-2016

 ----------------------------------------------------------------------
 #P ROCCSD(T)=(maxcyc=150, Full, SaveAmplitudes, ReadAmplitudes)/Gen 5d
  7f SCF=(maxcycles=300) Integral(NoXCTest) MaxDisk=500GB Pop=Regular P
 seudo=Read Guess=Read IOp(5/15=2)
 ----------------------------------------------------------------------

 ---
 ScO
 ---
 Symbolic Z-matrix:
 Charge =  0 Multiplicity = 2

                         Standard orientation:
 ---------------------------------------------------------------------
 Center     Atomic      Atomic             Coordinates (Angstroms)
 Number     Number       Type             X           Y           Z
 ---------------------------------------------------------------------
      1         21           0        0.000000    0.000000    0.468966
      2          8           0        0.000000    0.000000   -1.231034
 ---------------------------------------------------------------------

 SCF Done:  E(ROHF) =  -61.9541316651     A.U. after   15 cycles
 E2 =    -0.6834387628D+00 EUMP2 =    -0.62637570427938D+02
 CCSD(T)
 CCSD(T)= -0.62667664377D+02

 The electronic state is 2-SG.
 Alpha  occ. eigenvalues --   -2.66371  -1.66381  -1.63391  -1.63391  -1.12642
 Alpha  occ. eigenvalues --   -0.42745  -0.41119  -0.41119  -0.25270
 Alpha virt. eigenvalues --   -0.00040  -0.00040   0.01445   0.02233   0.03532
 Alpha virt. eigenvalues --    0.03532   0.03580   0.03580   0.04202   0.04202
 Alpha virt. eigenvalues --    0.04382   0.05441   0.08090   0.08090   0.10505

 Mulliken charges and spin densities:
               1          2
     1  Sc   1.255665   0.974902
     2  O   -1.255665   0.025098
 Sum of Mulliken charges =  -0.00000   1.00000

 Dipole moment (field-independent basis, Debye):
    X=              0.0000    Y=              0.0000    Z=              4.8570  Tot=              4.8570
 Quadrupole moment (field-independent basis, Debye-Ang):
   XX=            -21.8484   YY=            -21.8484   ZZ=            -32.5599
   XY=              0.0000   XZ=              0.0000   YZ=              0.0000

 \\#P ROCCSD(T)=(maxcyc=150, Full, SaveAmplitudes, ReadAmplitudes)/Gen
 08\CCSD=-62.626988\CCSD(T)=-62.6676644\RMSD=8.324e-09\PG=C*V [C*(O1Sc1
 Normal termination of Gaussian 16 at Wed Mar 14 08:02:32 2018.
