 Gaussian 16, Revision A.03,
 Gaussian 16:  ES64L-G16RevA.03 25-Dec-2016

 ----------------------------------------------------------------------
 #P ROCCSD(T)=(maxcyc=150, Full, SaveAmplitudes, ReadAmplitudes)/Gen 5d
  7f SCF=(maxcycles=300) Integral(NoXCTest) MaxDisk=500GB Pop=Regular P
 seudo=Read Guess=Read
 ----------------------------------------------------------------------

 ---
 ScO
 ---
 Symbolic Z-matrix:
 Charge =  0 Multiplicity = 2

                         Standard orientation:
 ---------------------------------------------------------------------
 Center     Atomic      Atomic             Coordinates (Angstroms)
 Number     Number       Type             X           Y           Z
 ---------------------------------------------------------------------
      1         21           0        0.000000    0.000000    0.441379
      2          8           0        0.000000    0.000000   -1.158621
 ---------------------------------------------------------------------

 SCF Done:  E(ROHF) =  -61.8328409321     A.U. after   16 cycles
 E2 =    -0.7077318190D+00 EUMP2 =    -0.62540572751012D+02
 CCSD(T)
 CCSD(T)= -0.62566047414D+02

 The electronic state is 2-SG.
 Alpha  occ. eigenvalues --   -2.63578  -1.66959  -1.60990  -1.60990  -1.11751
 Alpha  occ. eigenvalues --   -0.44311  -0.44311  -0.43929  -0.23890
 Alpha virt. eigenvalues --    0.00300   0.00300   0.01545   0.02091   0.02735
 Alpha virt. eigenvalues --    0.02735   0.03027   0.03027   0.03273   0.03399
 Alpha virt. eigenvalues --    0.03399   0.05179   0.07249   0.07249   0.09309

 Mulliken charges and spin densities:
               1          2
     1  Sc   1.276122   0.995930
     2  O   -1.276122   0.004070
 Sum of Mulliken charges =  -0.00000   1.00000

 Dipole moment (field-independent basis, Debye):
    X=              0.0000    Y=              0.0000    Z=              3.8304  Tot=              3.8304
 Quadrupole moment (field-independent basis, Debye-Ang):
   XX=            -21.9688   YY=            -21.9688   ZZ=            -31.8498
   XY=              0.0000   XZ=              0.0000   YZ=              0.0000

 \\#P ROCCSD(T)=(maxcyc=150, Full, SaveAmplitudes, ReadAmplitudes)/Gen
 328409\PMP2-0=-62.5405728\CCSD=-62.5267183\CCSD(T)=-62.5660474\RMSD=1.
 Normal termination of Gaussian 16 at Wed Feb 21 03:37:30 2018.
