 Gaussian 16, Revision A.03,
 Gaussian 16:  ES64L-G16RevA.03 25-Dec-2016

 ----------------------------------------------------------------------
 #P ROCCSD(T)=(maxcyc=150, Full)/Gen 5d 7f SCF=(maxcycles=300, NoVarAcc
 , VShift=200) MaxDisk=100GB Pop=Regular Pseudo=Read Guess=Read
 ----------------------------------------------------------------------

 --
 Ti
 --
 Symbolic Z-matrix:
 Charge =  0 Multiplicity = 3

                         Standard orientation:
 ---------------------------------------------------------------------
 Center     Atomic      Atomic             Coordinates (Angstroms)
 Number     Number       Type             X           Y           Z
 ---------------------------------------------------------------------
      1         22           0        0.000000    0.000000    0.000000
 ---------------------------------------------------------------------

 SCF Done:  E(ROHF) =  -57.5811798502     A.U. after   12 cycles
 E2 =    -0.4383068327D+00 EUMP2 =    -0.58019486682868D+02
 CCSD(T)
 CCSD(T)= -0.58053721071D+02

 Unable to determine electronic state:  an orbital has unidentified symmetry.
 Alpha  occ. eigenvalues --   -2.99437  -1.89110  -1.89110  -1.89110  -0.44074
 Alpha  occ. eigenvalues --   -0.44074  -0.22955
 Alpha virt. eigenvalues --    0.01350   0.01350   0.01350   0.02033   0.03479
 Alpha virt. eigenvalues --    0.03479   0.03479   0.03510   0.03510   0.04655
 Alpha virt. eigenvalues --    0.04655   0.04655   0.09449   0.09449   0.09449

 Mulliken charges and spin densities:
               1          2
     1  Ti  -0.000000   2.000000
 Sum of Mulliken charges =  -0.00000   2.00000

 Dipole moment (field-independent basis, Debye):
    X=             -0.0000    Y=             -0.0000    Z=              0.0000  Tot=              0.0000
 Quadrupole moment (field-independent basis, Debye-Ang):
   XX=            -21.9970   YY=            -21.9970   ZZ=            -21.9970
   XY=             -0.0000   XZ=             -0.0000   YZ=             -0.0000

 1\1\GINC-C506-092\SP\ROCCSD(T)-Full\Gen\Ti1(3)\AANNABE\01-Apr-2018\0\\
 #P ROCCSD(T)=(maxcyc=150, Full)/Gen 5d 7f SCF=(maxcycles=300, NoVarAcc
 , VShift=200) MaxDisk=100GB Pop=Regular Pseudo=Read Guess=Read\\Ti\\0,
 3\Ti,0,0.,0.,0.\\Version=ES64L-G16RevA.03\HF=-57.5811799\MP2=-58.01948
 67\MP3=-58.037077\PUHF=-57.5811799\PMP2-0=-58.0194867\MP4SDQ=-58.03680
 38\CCSD=-58.0372006\CCSD(T)=-58.0537211\RMSD=2.805e-09\PG=OH [O(Ti1)]\
 \@

 Normal termination of Gaussian 16 at Sun Apr  1 14:56:32 2018.
