 Gaussian 16, Revision A.03,
 Gaussian 16:  ES64L-G16RevA.03 25-Dec-2016

 ----------------------------------------------------------------------
 #P ROCCSD(T)=(maxcyc=150, FrzINGC)/Gen 5d 7f SCF=(maxcycles=300) Integ
 ral(NoXCTest, DKHSO) MaxDisk=500GB Pop=Regular IOp(5/15=2) Guess=Read
 ----------------------------------------------------------------------

 ---
 ScH
 ---
 Symbolic Z-matrix:
 Charge =  0 Multiplicity = 1

                         Standard orientation:
 ---------------------------------------------------------------------
 Center     Atomic      Atomic             Coordinates (Angstroms)
 Number     Number       Type             X           Y           Z
 ---------------------------------------------------------------------
      1         21           0        0.000000    0.000000    0.063636
      2          1           0        0.000000    0.000000   -1.336364
 ---------------------------------------------------------------------

 SCF Done:  E(ROHF) =  -763.792153812     A.U. after   12 cycles
 E2 =    -0.3882304980D+00 EUMP2 =    -0.76418038431007D+03
 CCSD(T)
 CCSD(T)= -0.76422029594D+03

 The electronic state is 1-SG.
 Alpha  occ. eigenvalues -- -166.86481 -19.31470 -15.73833 -15.73833 -15.73140
 Alpha  occ. eigenvalues --   -2.63891  -1.63262  -1.61549  -1.61549  -0.45294
 Alpha  occ. eigenvalues --   -0.21972
 Alpha virt. eigenvalues --    0.01319   0.01319   0.01646   0.02168   0.03496
 Alpha virt. eigenvalues --    0.03913   0.03913   0.03917   0.03917   0.04813
 Alpha virt. eigenvalues --    0.04813   0.05071   0.09273   0.09932   0.09932

 Mulliken charges and spin densities:
               1          2
     1  Sc   0.451966   0.000000
     2  H   -0.451966   0.000000
 Sum of Mulliken charges =   0.00000   0.00000

 Dipole moment (field-independent basis, Debye):
    X=              0.0000    Y=              0.0000    Z=              0.6041  Tot=              0.6041
 Quadrupole moment (field-independent basis, Debye-Ang):
   XX=            -23.8953   YY=            -23.8953   ZZ=            -24.3833
   XY=              0.0000   XZ=              0.0000   YZ=              0.0000

  ROCCSD(T)=(maxcyc=150, FrzINGC)/Gen 5d 7f SCF=(maxcycles=300) Integra
 \PMP2-0=-764.1803843\MP4SDQ=-764.204474\CCSD=-764.2042752\CCSD(T)=-764
 Normal termination of Gaussian 16 at Tue Feb 13 18:46:15 2018.
