 Gaussian 16, Revision A.03,
 Gaussian 16:  ES64L-G16RevA.03 25-Dec-2016

 ----------------------------------------------------------------------
 #P ROCCSD(T)=(maxcyc=150, Full, SaveAmplitudes, ReadAmplitudes)/Gen 5d
  7f SCF=(maxcycles=300) Integral(NoXCTest) MaxDisk=500GB Pop=Regular P
 seudo=Read Guess=Read
 ----------------------------------------------------------------------

 ---
 ScO
 ---
 Symbolic Z-matrix:
 Charge =  0 Multiplicity = 2

                         Standard orientation:
 ---------------------------------------------------------------------
 Center     Atomic      Atomic             Coordinates (Angstroms)
 Number     Number       Type             X           Y           Z
 ---------------------------------------------------------------------
      1         21           0        0.000000    0.000000    0.551724
      2          8           0        0.000000    0.000000   -1.448276
 ---------------------------------------------------------------------

 SCF Done:  E(ROHF) =  -61.8023042347     A.U. after   16 cycles
 E2 =    -0.7235354617D+00 EUMP2 =    -0.62525839696414D+02
 CCSD(T)
 CCSD(T)= -0.62556320178D+02

 The electronic state is 2-SG.
 Alpha  occ. eigenvalues --   -2.73732  -1.70888  -1.70888  -1.70362  -1.09799
 Alpha  occ. eigenvalues --   -0.38936  -0.34766  -0.34766  -0.28276
 Alpha virt. eigenvalues --   -0.01329  -0.01329   0.00486   0.01625   0.02382
 Alpha virt. eigenvalues --    0.02382   0.02516   0.02516   0.03046   0.03301
 Alpha virt. eigenvalues --    0.03301   0.04043   0.04372   0.04372   0.08648

 Mulliken charges and spin densities:
               1          2
     1  Sc   1.201712   0.982148
     2  O   -1.201712   0.017852
 Sum of Mulliken charges =  -0.00000   1.00000

 Dipole moment (field-independent basis, Debye):
    X=              0.0000    Y=              0.0000    Z=              7.4398  Tot=              7.4398
 Quadrupole moment (field-independent basis, Debye-Ang):
   XX=            -22.1541   YY=            -22.1541   ZZ=            -34.9072
   XY=              0.0000   XZ=              0.0000   YZ=              0.0000

 \\#P ROCCSD(T)=(maxcyc=150, Full, SaveAmplitudes, ReadAmplitudes)/Gen
 23042\PMP2-0=-62.5258397\CCSD=-62.5030148\CCSD(T)=-62.5563202\RMSD=3.6
 Normal termination of Gaussian 16 at Wed Feb 21 09:06:00 2018.
