 Gaussian 16, Revision A.03,
 Gaussian 16:  ES64L-G16RevA.03 25-Dec-2016

 ----------------------------------------------------------------------
 #P ROCCSD(T)=(MaxCyc=150, Full)/Gen SCF=(maxcycle=400) Pseudo=Read Int
 egral(NoXCTest) Pop=Regular MaxDisk=500GB Guess=Read IOp(5/15=2)
 ----------------------------------------------------------------------

 ---
 CoO
 ---
 Symbolic Z-matrix:
 Charge =  0 Multiplicity = 4

                         Standard orientation:
 ---------------------------------------------------------------------
 Center     Atomic      Atomic             Coordinates (Angstroms)
 Number     Number       Type             X           Y           Z
 ---------------------------------------------------------------------
      1         27           0        0.000000    0.000000    0.274286
      2          8           0        0.000000    0.000000   -0.925714
 ---------------------------------------------------------------------

 SCF Done:  E(ROHF) =  -160.353234165     A.U. after   24 cycles
 E2 =    -0.1146971942D+01 EUMP2 =    -0.16150020610740D+03
 CCSD(T)
 CCSD(T)= -0.16147618079D+03

 Unable to determine electronic state:  partially filled degenerate orbitals.
 Alpha  occ. eigenvalues --   -4.95713  -3.35347  -3.28433  -3.28433  -1.38799
 Alpha  occ. eigenvalues --   -0.91910  -0.91910  -0.78776  -0.76535  -0.73772
 Alpha  occ. eigenvalues --   -0.50603  -0.50603  -0.32608
 Alpha virt. eigenvalues --    0.01539   0.02983   0.02983   0.03336   0.06062
 Alpha virt. eigenvalues --    0.09599   0.09599   0.11189   0.11297   0.11297
 Alpha virt. eigenvalues --    0.11322   0.11346   0.12659   0.18530   0.26011

 Mulliken charges and spin densities:
               1          2
     1  Co   0.592005   2.603410
     2  O   -0.592005   0.396590
 Sum of Mulliken charges =  -0.00000   3.00000

 Dipole moment (field-independent basis, Debye):
    X=              0.0000    Y=              0.0000    Z=              1.8652  Tot=              1.8652
 Quadrupole moment (field-independent basis, Debye-Ang):
   XX=            -20.1287   YY=            -20.1287   ZZ=            -20.2449
   XY=              0.0000   XZ=              0.0000   YZ=              0.0000

 \\#P ROCCSD(T)=(MaxCyc=150, Full)/Gen SCF=(maxcycle=400) Pseudo=Read I
 .5002061\MP4SDQ=-161.4574264\CCSD=-161.4278988\CCSD(T)=-161.4761808\RM
 Normal termination of Gaussian 16 at Sat Mar 31 17:50:20 2018.
