 Gaussian 16, Revision A.03,
 Gaussian 16:  ES64L-G16RevA.03 25-Dec-2016

 ----------------------------------------------------------------------
 #P ROCCSD(T)=(MaxCyc=150, Full)/Gen SCF=(maxcycle=400) Pseudo=Read Int
 egral(NoXCTest) Pop=Regular MaxDisk=500GB Guess=Read IOp(5/15=2)
 ----------------------------------------------------------------------

 ---
 CoO
 ---
 Symbolic Z-matrix:
 Charge =  0 Multiplicity = 4

                         Standard orientation:
 ---------------------------------------------------------------------
 Center     Atomic      Atomic             Coordinates (Angstroms)
 Number     Number       Type             X           Y           Z
 ---------------------------------------------------------------------
      1         27           0        0.000000    0.000000    0.274286
      2          8           0        0.000000    0.000000   -0.925714
 ---------------------------------------------------------------------

 SCF Done:  E(ROHF) =  -160.357982376     A.U. after   20 cycles
 E2 =    -0.1199415636D+01 EUMP2 =    -0.16155739801242D+03
 CCSD(T)
 CCSD(T)= -0.16153122932D+03

 Unable to determine electronic state:  partially filled degenerate orbitals.
 Alpha  occ. eigenvalues --   -4.95700  -3.35311  -3.28422  -3.28422  -1.38736
 Alpha  occ. eigenvalues --   -0.91923  -0.91923  -0.78779  -0.76528  -0.73779
 Alpha  occ. eigenvalues --   -0.50620  -0.50620  -0.32591
 Alpha virt. eigenvalues --    0.01470   0.02714   0.02714   0.03056   0.05622
 Alpha virt. eigenvalues --    0.07161   0.07161   0.07402   0.07410   0.07626
 Alpha virt. eigenvalues --    0.09203   0.09203   0.11207   0.17359   0.21450

 Mulliken charges and spin densities:
               1          2
     1  Co   0.595691   2.611134
     2  O   -0.595691   0.388866
 Sum of Mulliken charges =  -0.00000   3.00000

 Dipole moment (field-independent basis, Debye):
    X=              0.0000    Y=              0.0000    Z=              1.8543  Tot=              1.8543
 Quadrupole moment (field-independent basis, Debye-Ang):
   XX=            -20.1302   YY=            -20.1302   ZZ=            -20.2317
   XY=              0.0000   XZ=              0.0000   YZ=              0.0000

 \\#P ROCCSD(T)=(MaxCyc=150, Full)/Gen SCF=(maxcycle=400) Pseudo=Read I
 557398\MP4SDQ=-161.5095816\CCSD=-161.4807179\CCSD(T)=-161.5312293\RMSD
 Normal termination of Gaussian 16 at Sat Mar 31 19:58:11 2018.
