 Gaussian 16, Revision A.03,
 Gaussian 16:  ES64L-G16RevA.03 25-Dec-2016

 ----------------------------------------------------------------------
 #P ROCCSD(T)=(maxcyc=150, Full, SaveAmplitudes, ReadAmplitudes)/Gen 5d
  7f SCF=(maxcycles=300) Integral(NoXCTest) MaxDisk=500GB Pop=Regular P
 seudo=Read Guess=Read IOp(5/15=2)
 ----------------------------------------------------------------------

 ---
 MnO
 ---
 Symbolic Z-matrix:
 Charge =  0 Multiplicity = 6

                         Standard orientation:
 ---------------------------------------------------------------------
 Center     Atomic      Atomic             Coordinates (Angstroms)
 Number     Number       Type             X           Y           Z
 ---------------------------------------------------------------------
      1         25           0        0.000000    0.000000    0.412121
      2          8           0        0.000000    0.000000   -1.287879
 ---------------------------------------------------------------------

 SCF Done:  E(ROHF) =  -119.166268151     A.U. after   31 cycles
 E2 =    -0.8922192425D+00 EUMP2 =    -0.12005848739345D+03
 CCSD(T)
 CCSD(T)= -0.12008966154D+03

 The electronic state is 6-SG.
 Alpha  occ. eigenvalues --   -4.15151  -2.79960  -2.79960  -2.79337  -1.12044
 Alpha  occ. eigenvalues --   -0.64422  -0.64422  -0.63655  -0.63655  -0.59561
 Alpha  occ. eigenvalues --   -0.33902  -0.33872  -0.33872
 Alpha virt. eigenvalues --   -0.04628   0.01573   0.01573   0.01835   0.03845
 Alpha virt. eigenvalues --    0.06683   0.06683   0.08209   0.08443   0.08443
 Alpha virt. eigenvalues --    0.09604   0.09604   0.13186   0.14046   0.22985

 Mulliken charges and spin densities:
               1          2
     1  Mn   1.150560   4.893091
     2  O   -1.150560   0.106909
 Sum of Mulliken charges =  -0.00000   5.00000

 Dipole moment (field-independent basis, Debye):
    X=              0.0000    Y=              0.0000    Z=              9.1210  Tot=              9.1210
 Quadrupole moment (field-independent basis, Debye-Ang):
   XX=            -18.8606   YY=            -18.8606   ZZ=            -23.8282
   XY=              0.0000   XZ=              0.0000   YZ=              0.0000

 \\#P ROCCSD(T)=(maxcyc=150, Full, SaveAmplitudes, ReadAmplitudes)/Gen
 .0571193\CCSD=-120.0484843\CCSD(T)=-120.0896615\RMSD=5.094e-09\PG=C*V
 Normal termination of Gaussian 16 at Sat Mar 10 07:50:09 2018.
