 Gaussian 16, Revision A.03,
 Gaussian 16:  ES64L-G16RevA.03 25-Dec-2016

 ----------------------------------------------------------------------
 #P ROCCSD(T)=(maxcyc=150, Full)/Gen 5d 7f SCF=(maxcycles=300, NoVarAcc
 , VShift=200) MaxDisk=100GB Pop=Regular Pseudo=Read Guess=Read
 ----------------------------------------------------------------------

 --
 Ti
 --
 Symbolic Z-matrix:
 Charge =  0 Multiplicity = 3

                         Standard orientation:
 ---------------------------------------------------------------------
 Center     Atomic      Atomic             Coordinates (Angstroms)
 Number     Number       Type             X           Y           Z
 ---------------------------------------------------------------------
      1         22           0        0.000000    0.000000    0.000000
 ---------------------------------------------------------------------

 SCF Done:  E(ROHF) =  -57.7484557779     A.U. after   21 cycles
 E2 =    -0.4389248152D+00 EUMP2 =    -0.58187380593157D+02
 CCSD(T)
 CCSD(T)= -0.58221370158D+02

 Unable to determine electronic state:  an orbital has unidentified symmetry.
 Alpha  occ. eigenvalues --   -3.02192  -1.88609  -1.88609  -1.88609  -0.43872
 Alpha  occ. eigenvalues --   -0.43872  -0.23133
 Alpha virt. eigenvalues --    0.01385   0.01385   0.01385   0.02025   0.03481
 Alpha virt. eigenvalues --    0.03481   0.03481   0.03511   0.03511   0.04706
 Alpha virt. eigenvalues --    0.04706   0.04706   0.09535   0.09535   0.09535

 Mulliken charges and spin densities:
               1          2
     1  Ti  -0.000000   2.000000
 Sum of Mulliken charges =  -0.00000   2.00000

 Dipole moment (field-independent basis, Debye):
    X=             -0.0000    Y=              0.0000    Z=              0.0000  Tot=              0.0000
 Quadrupole moment (field-independent basis, Debye-Ang):
   XX=            -21.7698   YY=            -21.7698   ZZ=            -21.7698
   XY=             -0.0000   XZ=              0.0000   YZ=             -0.0000

 1\1\GINC-C464-113\SP\ROCCSD(T)-Full\Gen\Ti1(3)\AANNABE\13-Mar-2018\0\\
 #P ROCCSD(T)=(maxcyc=150, Full)/Gen 5d 7f SCF=(maxcycles=300, NoVarAcc
 , VShift=200) MaxDisk=100GB Pop=Regular Pseudo=Read Guess=Read\\Ti\\0,
 3\Ti,0,0.,0.,0.\\Version=ES64L-G16RevA.03\HF=-57.7484558\MP2=-58.18738
 06\MP3=-58.2047667\PUHF=-57.7484558\PMP2-0=-58.1873806\MP4SDQ=-58.2044
 654\CCSD=-58.2048586\CCSD(T)=-58.2213702\RMSD=6.895e-09\PG=OH [O(Ti1)]
 \\@

 Normal termination of Gaussian 16 at Tue Mar 13 13:36:01 2018.
