 Gaussian 16, Revision A.03,
 Gaussian 16:  ES64L-G16RevA.03 25-Dec-2016

 ----------------------------------------------------------------------
 #P ROCCSD(T)=(MaxCyc=150, Full)/Gen SCF=(maxcycle=400, vshift=200) Pse
 udo=Read Integral(NoXCTest) Pop=Regular MaxDisk=500GB
 ----------------------------------------------------------------------

 ---
 FeO
 ---
 Symbolic Z-matrix:
 Charge =  0 Multiplicity = 5

                         Standard orientation:
 ---------------------------------------------------------------------
 Center     Atomic      Atomic             Coordinates (Angstroms)
 Number     Number       Type             X           Y           Z
 ---------------------------------------------------------------------
      1         26           0        0.000000    0.000000    0.400000
      2          8           0        0.000000    0.000000   -1.300000
 ---------------------------------------------------------------------

 SCF Done:  E(ROHF) =  -138.317706875     A.U. after   34 cycles
 E2 =    -0.1030859511D+01 EUMP2 =    -0.13934856638598D+03
 CCSD(T)
 CCSD(T)= -0.13937437016D+03

 Unable to determine electronic state:  partially filled degenerate orbitals.
 Alpha  occ. eigenvalues --   -4.45626  -3.03162  -2.96040  -2.96040  -1.12439
 Alpha  occ. eigenvalues --   -0.69692  -0.69692  -0.67173  -0.66270  -0.61408
 Alpha  occ. eigenvalues --   -0.35173  -0.34297  -0.34297
 Alpha virt. eigenvalues --   -0.05406   0.01410   0.01410   0.01526   0.03566
 Alpha virt. eigenvalues --    0.06096   0.06096   0.06400   0.06411   0.06671
 Alpha virt. eigenvalues --    0.07747   0.07747   0.11664   0.13494   0.19070

 Mulliken charges and spin densities:
               1          2
     1  Fe   1.135778   3.895603
     2  O   -1.135778   0.104397
 Sum of Mulliken charges =  -0.00000   4.00000

 Dipole moment (field-independent basis, Debye):
    X=              0.0000    Y=              0.0000    Z=              9.2245  Tot=              9.2245
 Quadrupole moment (field-independent basis, Debye-Ang):
   XX=            -18.5733   YY=            -18.5733   ZZ=            -23.1766
   XY=              0.0000   XZ=              0.0000   YZ=              0.0000

 \\#P ROCCSD(T)=(MaxCyc=150, Full)/Gen SCF=(maxcycle=400, vshift=200) P
 4SDQ=-139.3357314\CCSD=-139.3243178\CCSD(T)=-139.3743702\RMSD=5.368e-0
 Normal termination of Gaussian 16 at Wed Apr 18 07:47:12 2018.
