 Gaussian 16, Revision A.03,
 Gaussian 16:  ES64L-G16RevA.03 25-Dec-2016

 ----------------------------------------------------------------------
 #P ROCCSD(T)=(MaxCyc=150, Full)/Gen SCF=(maxcycle=400, vshift=200) Pse
 udo=Read Integral(NoXCTest) Pop=Regular MaxDisk=500GB
 ----------------------------------------------------------------------

 ---
 FeO
 ---
 Symbolic Z-matrix:
 Charge =  0 Multiplicity = 5

                         Standard orientation:
 ---------------------------------------------------------------------
 Center     Atomic      Atomic             Coordinates (Angstroms)
 Number     Number       Type             X           Y           Z
 ---------------------------------------------------------------------
      1         26           0        0.000000    0.000000    0.400000
      2          8           0        0.000000    0.000000   -1.300000
 ---------------------------------------------------------------------

 SCF Done:  E(ROHF) =  -138.315003949     A.U. after   40 cycles
 E2 =    -0.9837586637D+00 EUMP2 =    -0.13929876261293D+03
 CCSD(T)
 CCSD(T)= -0.13932704782D+03

 Unable to determine electronic state:  partially filled degenerate orbitals.
 Alpha  occ. eigenvalues --   -4.45638  -3.03183  -2.96059  -2.96059  -1.12483
 Alpha  occ. eigenvalues --   -0.69698  -0.69698  -0.67184  -0.66277  -0.61413
 Alpha  occ. eigenvalues --   -0.35188  -0.34295  -0.34295
 Alpha virt. eigenvalues --   -0.05413   0.01689   0.01689   0.01785   0.04026
 Alpha virt. eigenvalues --    0.07013   0.07013   0.08753   0.09488   0.09519
 Alpha virt. eigenvalues --    0.10625   0.10625   0.13791   0.14823   0.24523

 Mulliken charges and spin densities:
               1          2
     1  Fe   1.143108   3.883787
     2  O   -1.143108   0.116213
 Sum of Mulliken charges =  -0.00000   4.00000

 Dipole moment (field-independent basis, Debye):
    X=              0.0000    Y=              0.0000    Z=              9.2341  Tot=              9.2341
 Quadrupole moment (field-independent basis, Debye-Ang):
   XX=            -18.5746   YY=            -18.5746   ZZ=            -23.1991
   XY=              0.0000   XZ=              0.0000   YZ=              0.0000

 \\#P ROCCSD(T)=(MaxCyc=150, Full)/Gen SCF=(maxcycle=400, vshift=200) P
 4SDQ=-139.2913814\CCSD=-139.2792872\CCSD(T)=-139.3270478\RMSD=8.826e-0
 Normal termination of Gaussian 16 at Wed Apr 18 05:37:46 2018.
