 Gaussian 16, Revision A.03,
 Gaussian 16:  ES64L-G16RevA.03 25-Dec-2016

 ----------------------------------------------------------------------
 #P ROCCSD(T)=(maxcyc=150, Full)/Gen 5d 7f SCF=(maxcycles=300) Integral
 (NoXCTest) MaxDisk=500GB Pop=Regular Pseudo=Read IOp(5/15=2) Guess=Rea
 d
 ----------------------------------------------------------------------

 ---
 ScH
 ---
 Symbolic Z-matrix:
 Charge =  0 Multiplicity = 1

                         Standard orientation:
 ---------------------------------------------------------------------
 Center     Atomic      Atomic             Coordinates (Angstroms)
 Number     Number       Type             X           Y           Z
 ---------------------------------------------------------------------
      1         21           0        0.000000    0.000000    0.077273
      2          1           0        0.000000    0.000000   -1.622727
 ---------------------------------------------------------------------

 SCF Done:  E(ROHF) =  -46.5961673159     A.U. after   11 cycles
 E2 =    -0.4073888831D+00 EUMP2 =    -0.47003556198977D+02
 CCSD(T)
 CCSD(T)= -0.47047462631D+02

 The electronic state is 1-SG.
 Alpha  occ. eigenvalues --   -2.68711  -1.65815  -1.65633  -1.65633  -0.41717
 Alpha  occ. eigenvalues --   -0.22901
 Alpha virt. eigenvalues --    0.01209   0.01209   0.01606   0.02185   0.03542
 Alpha virt. eigenvalues --    0.03859   0.03859   0.03921   0.03921   0.04622
 Alpha virt. eigenvalues --    0.04622   0.04861   0.08670   0.08670   0.09360

 Mulliken charges and spin densities:
               1          2
     1  Sc   0.368995   0.000000
     2  H   -0.368995   0.000000
 Sum of Mulliken charges =   0.00000   0.00000

 Dipole moment (field-independent basis, Debye):
    X=              0.0000    Y=              0.0000    Z=              1.2260  Tot=              1.2260
 Quadrupole moment (field-independent basis, Debye-Ang):
   XX=            -23.1745   YY=            -23.1745   ZZ=            -26.0437
   XY=              0.0000   XZ=              0.0000   YZ=              0.0000

 P ROCCSD(T)=(maxcyc=150, Full)/Gen 5d 7f SCF=(maxcycles=300) Integral(
 PMP2-0=-47.0035562\MP4SDQ=-47.0297058\CCSD=-47.0293575\CCSD(T)=-47.047
 Normal termination of Gaussian 16 at Wed Feb 14 03:02:39 2018.
