 Gaussian 16, Revision A.03,
 Gaussian 16:  ES64L-G16RevA.03 25-Dec-2016

 ----------------------------------------------------------------------
 #P ROCCSD(T)=(maxcyc=150, Full)/Gen 5d 7f SCF=(maxcycles=300) Integral
 (NoXCTest) MaxDisk=500GB Pop=Regular Pseudo=Read IOp(5/15=2) Guess=Rea
 d
 ----------------------------------------------------------------------

 ---
 ScH
 ---
 Symbolic Z-matrix:
 Charge =  0 Multiplicity = 1

                         Standard orientation:
 ---------------------------------------------------------------------
 Center     Atomic      Atomic             Coordinates (Angstroms)
 Number     Number       Type             X           Y           Z
 ---------------------------------------------------------------------
      1         21           0        0.000000    0.000000    0.090909
      2          1           0        0.000000    0.000000   -1.909091
 ---------------------------------------------------------------------

 SCF Done:  E(ROHF) =  -46.5911791593     A.U. after    9 cycles
 E2 =    -0.4257971253D+00 EUMP2 =    -0.47016976284682D+02
 CCSD(T)
 CCSD(T)= -0.47060588744D+02

 The electronic state is 1-SG.
 Alpha  occ. eigenvalues --   -2.71439  -1.68220  -1.68220  -1.68034  -0.37976
 Alpha  occ. eigenvalues --   -0.23934
 Alpha virt. eigenvalues --    0.00986   0.00986   0.01218   0.01796   0.02573
 Alpha virt. eigenvalues --    0.02573   0.02677   0.02677   0.02733   0.03631
 Alpha virt. eigenvalues --    0.03871   0.03871   0.06404   0.06404   0.07059

 Mulliken charges and spin densities:
               1          2
     1  Sc   0.369778   0.000000
     2  H   -0.369778   0.000000
 Sum of Mulliken charges =  -0.00000   0.00000

 Dipole moment (field-independent basis, Debye):
    X=              0.0000    Y=              0.0000    Z=              2.2136  Tot=              2.2136
 Quadrupole moment (field-independent basis, Debye-Ang):
   XX=            -22.9604   YY=            -22.9604   ZZ=            -28.3484
   XY=              0.0000   XZ=              0.0000   YZ=              0.0000

 P ROCCSD(T)=(maxcyc=150, Full)/Gen 5d 7f SCF=(maxcycles=300) Integral(
 MP2-0=-47.0169763\MP4SDQ=-47.0398336\CCSD=-47.0402945\CCSD(T)=-47.0605
 Normal termination of Gaussian 16 at Wed Feb 14 09:46:25 2018.
