 Gaussian 16, Revision A.03,
 Gaussian 16:  ES64L-G16RevA.03 25-Dec-2016

 ----------------------------------------------------------------------
 #P ROCCSD(T)=(MaxCyc=150, Full)/Gen SCF=(maxcycle=400) Pseudo=Read Int
 egral(NoXCTest) Pop=Regular MaxDisk=500GB Guess=Read IOp(5/15=2)
 ----------------------------------------------------------------------

 ---
 CuH
 ---
 Symbolic Z-matrix:
 Charge =  0 Multiplicity = 1

                         Standard orientation:
 ---------------------------------------------------------------------
 Center     Atomic      Atomic             Coordinates (Angstroms)
 Number     Number       Type             X           Y           Z
 ---------------------------------------------------------------------
      1         29           0        0.000000    0.000000    0.046667
      2          1           0        0.000000    0.000000   -1.353333
 ---------------------------------------------------------------------

 SCF Done:  E(ROHF) =  -196.726897373     A.U. after   10 cycles
 E2 =    -0.1140546942D+01 EUMP2 =    -0.19786744431465D+03
 CCSD(T)
 CCSD(T)= -0.19778456350D+03

 The electronic state is 1-SG.
 Alpha  occ. eigenvalues --   -5.24325  -3.44739  -3.44159  -3.44159  -0.51597
 Alpha  occ. eigenvalues --   -0.50312  -0.50312  -0.49885  -0.49885  -0.34070
 Alpha virt. eigenvalues --    0.00295   0.02662   0.02662   0.03175   0.05224
 Alpha virt. eigenvalues --    0.09002   0.09005   0.09005   0.13469   0.13489
 Alpha virt. eigenvalues --    0.13489   0.13952   0.13952   0.20144   0.22357

 Mulliken charges and spin densities:
               1          2
     1  Cu   0.333296   0.000000
     2  H   -0.333296   0.000000
 Sum of Mulliken charges =  -0.00000   0.00000

 Dipole moment (field-independent basis, Debye):
    X=              0.0000    Y=              0.0000    Z=              3.7657  Tot=              3.7657
 Quadrupole moment (field-independent basis, Debye-Ang):
   XX=            -13.6862   YY=            -13.6862   ZZ=            -15.4564
   XY=              0.0000   XZ=              0.0000   YZ=              0.0000

 P ROCCSD(T)=(MaxCyc=150, Full)/Gen SCF=(maxcycle=400) Pseudo=Read Inte
 2-0=-197.8674443\MP4SDQ=-197.8211928\CCSD=-197.7451581\CCSD(T)=-197.78
 Normal termination of Gaussian 16 at Wed Apr  4 23:56:34 2018.
