 Gaussian 16, Revision A.03,
 Gaussian 16:  ES64L-G16RevA.03 25-Dec-2016

 ----------------------------------------------------------------------
 #P ROCCSD(T)=(MaxCyc=150, Full)/Gen SCF=(maxcycle=400) Pseudo=Read Int
 egral(NoXCTest) Pop=Regular MaxDisk=500GB Guess=Read IOp(5/15=2)
 ----------------------------------------------------------------------

 ---
 CuH
 ---
 Symbolic Z-matrix:
 Charge =  0 Multiplicity = 1

                         Standard orientation:
 ---------------------------------------------------------------------
 Center     Atomic      Atomic             Coordinates (Angstroms)
 Number     Number       Type             X           Y           Z
 ---------------------------------------------------------------------
      1         29           0        0.000000    0.000000    0.046667
      2          1           0        0.000000    0.000000   -1.353333
 ---------------------------------------------------------------------

 SCF Done:  E(ROHF) =  -196.725563506     A.U. after   12 cycles
 E2 =    -0.1088717539D+01 EUMP2 =    -0.19781428104533D+03
 CCSD(T)
 CCSD(T)= -0.19773280060D+03

 The electronic state is 1-SG.
 Alpha  occ. eigenvalues --   -5.24322  -3.44748  -3.44161  -3.44161  -0.51598
 Alpha  occ. eigenvalues --   -0.50308  -0.50308  -0.49877  -0.49877  -0.34065
 Alpha virt. eigenvalues --    0.00316   0.02955   0.02955   0.03507   0.05608
 Alpha virt. eigenvalues --    0.10033   0.10369   0.10369   0.17231   0.19536
 Alpha virt. eigenvalues --    0.19536   0.20453   0.20453   0.21671   0.25923

 Mulliken charges and spin densities:
               1          2
     1  Cu   0.353658  -0.000000
     2  H   -0.353658  -0.000000
 Sum of Mulliken charges =   0.00000  -0.00000

 Dipole moment (field-independent basis, Debye):
    X=              0.0000    Y=              0.0000    Z=              3.7760  Tot=              3.7760
 Quadrupole moment (field-independent basis, Debye-Ang):
   XX=            -13.6963   YY=            -13.6963   ZZ=            -15.4403
   XY=              0.0000   XZ=              0.0000   YZ=              0.0000

 P ROCCSD(T)=(MaxCyc=150, Full)/Gen SCF=(maxcycle=400) Pseudo=Read Inte
 -0=-197.814281\MP4SDQ=-197.7723016\CCSD=-197.6954255\CCSD(T)=-197.7328
 Normal termination of Gaussian 16 at Wed Apr  4 23:01:12 2018.
