 Gaussian 16, Revision A.03,
 Gaussian 16:  ES64L-G16RevA.03 25-Dec-2016

 ----------------------------------------------------------------------
 #P ROCCSD(T)=(MaxCyc=150, Full)/Gen SCF=(maxcycle=400) Pseudo=Read Int
 egral(NoXCTest) Pop=Regular MaxDisk=500GB Guess=Read IOp(5/15=2)
 ----------------------------------------------------------------------

 ---
 CuH
 ---
 Symbolic Z-matrix:
 Charge =  0 Multiplicity = 1

                         Standard orientation:
 ---------------------------------------------------------------------
 Center     Atomic      Atomic             Coordinates (Angstroms)
 Number     Number       Type             X           Y           Z
 ---------------------------------------------------------------------
      1         29           0        0.000000    0.000000    0.046667
      2          1           0        0.000000    0.000000   -1.353333
 ---------------------------------------------------------------------

 SCF Done:  E(ROHF) =  -196.726973866     A.U. after    7 cycles
 E2 =    -0.1165487993D+01 EUMP2 =    -0.19789246185865D+03
 CCSD(T)
 CCSD(T)= -0.19780738497D+03

 The electronic state is 1-SG.
 Alpha  occ. eigenvalues --   -5.24327  -3.44740  -3.44160  -3.44160  -0.51597
 Alpha  occ. eigenvalues --   -0.50314  -0.50314  -0.49886  -0.49886  -0.34070
 Alpha virt. eigenvalues --    0.00216   0.02576   0.02576   0.02900   0.04440
 Alpha virt. eigenvalues --    0.07772   0.08638   0.08638   0.12076   0.12076
 Alpha virt. eigenvalues --    0.12093   0.12527   0.12527   0.15287   0.18660

 Mulliken charges and spin densities:
               1          2
     1  Cu   0.292768   0.000000
     2  H   -0.292768   0.000000
 Sum of Mulliken charges =  -0.00000   0.00000

 Dipole moment (field-independent basis, Debye):
    X=              0.0000    Y=              0.0000    Z=              3.7640  Tot=              3.7640
 Quadrupole moment (field-independent basis, Debye-Ang):
   XX=            -13.6847   YY=            -13.6847   ZZ=            -15.4590
   XY=              0.0000   XZ=              0.0000   YZ=              0.0000

 P ROCCSD(T)=(MaxCyc=150, Full)/Gen SCF=(maxcycle=400) Pseudo=Read Inte
 2-0=-197.8924619\MP4SDQ=-197.8427484\CCSD=-197.7672302\CCSD(T)=-197.80
 Normal termination of Gaussian 16 at Thu Apr  5 02:42:17 2018.
