 Gaussian 16, Revision A.03,
 Gaussian 16:  ES64L-G16RevA.03 25-Dec-2016

 ----------------------------------------------------------------------
 #P ROCCSD(T)=(maxcyc=150, Full, SaveAmplitudes, ReadAmplitudes)/Gen 5d
  7f SCF=(maxcycles=300) Integral(NoXCTest) MaxDisk=500GB Pop=Regular P
 seudo=Read Guess=Read IOp(5/15=2)
 ----------------------------------------------------------------------

 ---
 ScO
 ---
 Symbolic Z-matrix:
 Charge =  0 Multiplicity = 2

                         Standard orientation:
 ---------------------------------------------------------------------
 Center     Atomic      Atomic             Coordinates (Angstroms)
 Number     Number       Type             X           Y           Z
 ---------------------------------------------------------------------
      1         21           0        0.000000    0.000000    0.524138
      2          8           0        0.000000    0.000000   -1.375862
 ---------------------------------------------------------------------

 SCF Done:  E(ROHF) =  -62.0382575916     A.U. after   19 cycles
 E2 =    -0.6994401605D+00 EUMP2 =    -0.62737697752103D+02
 CCSD(T)
 CCSD(T)= -0.62769277134D+02

 The electronic state is 2-SG.
 Alpha  occ. eigenvalues --   -2.77050  -1.68002  -1.67982  -1.67982  -1.09218
 Alpha  occ. eigenvalues --   -0.40242  -0.36395  -0.36395  -0.27478
 Alpha virt. eigenvalues --   -0.00899  -0.00899   0.00918   0.01939   0.03036
 Alpha virt. eigenvalues --    0.03036   0.03352   0.03352   0.04118   0.04316
 Alpha virt. eigenvalues --    0.04316   0.04902   0.06102   0.06102   0.09956

 Mulliken charges and spin densities:
               1          2
     1  Sc   1.218914   0.977095
     2  O   -1.218914   0.022905
 Sum of Mulliken charges =  -0.00000   1.00000

 Dipole moment (field-independent basis, Debye):
    X=              0.0000    Y=              0.0000    Z=              6.6351  Tot=              6.6351
 Quadrupole moment (field-independent basis, Debye-Ang):
   XX=            -21.9471   YY=            -21.9471   ZZ=            -34.2544
   XY=              0.0000   XZ=              0.0000   YZ=              0.0000

 \\#P ROCCSD(T)=(maxcyc=150, Full, SaveAmplitudes, ReadAmplitudes)/Gen
 22\CCSD=-62.7222889\CCSD(T)=-62.7692771\RMSD=6.571e-09\PG=C*V [C*(O1Sc
 Normal termination of Gaussian 16 at Wed Feb 28 18:59:17 2018.
