 Gaussian 16, Revision A.03,
 Gaussian 16:  ES64L-G16RevA.03 25-Dec-2016

 ----------------------------------------------------------------------
 #P ROCCSD(T)=(MaxCyc=150, Full)/Gen SCF=(maxcycle=400, vshift=200) Pse
 udo=Read Integral(NoXCTest) Pop=Regular MaxDisk=500GB Guess=Read IOp(5
 /15=2)
 ----------------------------------------------------------------------

 ---
 FeH
 ---
 Symbolic Z-matrix:
 Charge =  0 Multiplicity = 4

                         Standard orientation:
 ---------------------------------------------------------------------
 Center     Atomic      Atomic             Coordinates (Angstroms)
 Number     Number       Type             X           Y           Z
 ---------------------------------------------------------------------
      1         26           0        0.000000    0.000000    0.066667
      2          1           0        0.000000    0.000000   -1.733333
 ---------------------------------------------------------------------

 SCF Done:  E(ROHF) =  -123.288549887     A.U. after   30 cycles
 E2 =    -0.7961264584D+00 EUMP2 =    -0.12408467634552D+03
 CCSD(T)
 CCSD(T)= -0.12408933463D+03

 Unable to determine electronic state:  an orbital has unidentified symmetry.
 Alpha  occ. eigenvalues --   -4.15844  -2.77906  -2.77616  -2.77616  -0.48819
 Alpha  occ. eigenvalues --   -0.48819  -0.48572  -0.43605  -0.42870  -0.31740
 Alpha virt. eigenvalues --   -0.00881   0.02122   0.02122   0.03094   0.03578
 Alpha virt. eigenvalues --    0.06213   0.06710   0.06725   0.06872   0.06872
 Alpha virt. eigenvalues --    0.07687   0.07687   0.10183   0.15710   0.17732

 Mulliken charges and spin densities:
               1          2
     1  Fe   0.347703   2.998137
     2  H   -0.347703   0.001863
 Sum of Mulliken charges =  -0.00000   3.00000

 Dipole moment (field-independent basis, Debye):
    X=              0.0000    Y=              0.0000    Z=              5.0130  Tot=              5.0130
 Quadrupole moment (field-independent basis, Debye-Ang):
   XX=            -15.3002   YY=            -15.3002   ZZ=            -19.0771
   XY=              0.0000   XZ=              0.0000   YZ=              0.0000

 \\#P ROCCSD(T)=(MaxCyc=150, Full)/Gen SCF=(maxcycle=400, vshift=200) P
 \PMP2-0=-124.0846763\MP4SDQ=-124.0665056\CCSD=-124.0615264\CCSD(T)=-12
 Normal termination of Gaussian 16 at Sat Mar 24 01:23:41 2018.
