 Gaussian 16, Revision A.03,
 Gaussian 16:  ES64L-G16RevA.03 25-Dec-2016

 ----------------------------------------------------------------------
 #P ROCCSD(T)=(MaxCyc=150, Full)/Gen SCF=(maxcycle=400, vshift=200) Pse
 udo=Read Integral(NoXCTest) Pop=Regular MaxDisk=500GB Guess=Read IOp(5
 /15=2)
 ----------------------------------------------------------------------

 ---
 FeH
 ---
 Symbolic Z-matrix:
 Charge =  0 Multiplicity = 4

                         Standard orientation:
 ---------------------------------------------------------------------
 Center     Atomic      Atomic             Coordinates (Angstroms)
 Number     Number       Type             X           Y           Z
 ---------------------------------------------------------------------
      1         26           0        0.000000    0.000000    0.066667
      2          1           0        0.000000    0.000000   -1.733333
 ---------------------------------------------------------------------

 SCF Done:  E(ROHF) =  -123.288721113     A.U. after   17 cycles
 E2 =    -0.8103611394D+00 EUMP2 =    -0.12409908225284D+03
 CCSD(T)
 CCSD(T)= -0.12410168807D+03

 Unable to determine electronic state:  an orbital has unidentified symmetry.
 Alpha  occ. eigenvalues --   -4.15841  -2.77903  -2.77612  -2.77612  -0.48816
 Alpha  occ. eigenvalues --   -0.48816  -0.48569  -0.43608  -0.42873  -0.31740
 Alpha virt. eigenvalues --   -0.00900   0.02056   0.02056   0.02732   0.03105
 Alpha virt. eigenvalues --    0.05745   0.06148   0.06159   0.06367   0.06367
 Alpha virt. eigenvalues --    0.07322   0.07322   0.08880   0.12707   0.15914

 Mulliken charges and spin densities:
               1          2
     1  Fe   0.305534   2.996932
     2  H   -0.305534   0.003068
 Sum of Mulliken charges =  -0.00000   3.00000

 Dipole moment (field-independent basis, Debye):
    X=              0.0000    Y=              0.0000    Z=              5.0127  Tot=              5.0127
 Quadrupole moment (field-independent basis, Debye-Ang):
   XX=            -15.2980   YY=            -15.2980   ZZ=            -19.0804
   XY=              0.0000   XZ=              0.0000   YZ=              0.0000

 \\#P ROCCSD(T)=(MaxCyc=150, Full)/Gen SCF=(maxcycle=400, vshift=200) P
 \PMP2-0=-124.0990823\MP4SDQ=-124.0782967\CCSD=-124.0730876\CCSD(T)=-12
 Normal termination of Gaussian 16 at Sat Mar 24 03:19:49 2018.
