 Gaussian 16, Revision A.03,
 Gaussian 16:  ES64L-G16RevA.03 25-Dec-2016

 ----------------------------------------------------------------------
 #P ROCCSD(T)=(MaxCyc=150, Full)/Gen SCF=(maxcycle=400, vshift=200) Pse
 udo=Read Integral(NoXCTest) Pop=Regular MaxDisk=500GB Guess=Read IOp(5
 /15=2)
 ----------------------------------------------------------------------

 ---
 FeH
 ---
 Symbolic Z-matrix:
 Charge =  0 Multiplicity = 4

                         Standard orientation:
 ---------------------------------------------------------------------
 Center     Atomic      Atomic             Coordinates (Angstroms)
 Number     Number       Type             X           Y           Z
 ---------------------------------------------------------------------
      1         26           0        0.000000    0.000000    0.066667
      2          1           0        0.000000    0.000000   -1.733333
 ---------------------------------------------------------------------

 SCF Done:  E(ROHF) =  -123.287128411     A.U. after   36 cycles
 E2 =    -0.7602880210D+00 EUMP2 =    -0.12404741643214D+03
 CCSD(T)
 CCSD(T)= -0.12405414805D+03

 Unable to determine electronic state:  an orbital has unidentified symmetry.
 Alpha  occ. eigenvalues --   -4.15862  -2.77922  -2.77630  -2.77630  -0.48814
 Alpha  occ. eigenvalues --   -0.48814  -0.48567  -0.43598  -0.42860  -0.31738
 Alpha virt. eigenvalues --   -0.00871   0.02362   0.02362   0.03378   0.03857
 Alpha virt. eigenvalues --    0.08379   0.08379   0.09474   0.10100   0.10142
 Alpha virt. eigenvalues --    0.10378   0.10378   0.11027   0.17039   0.22772

 Mulliken charges and spin densities:
               1          2
     1  Fe   0.429490   2.998922
     2  H   -0.429490   0.001078
 Sum of Mulliken charges =   0.00000   3.00000

 Dipole moment (field-independent basis, Debye):
    X=              0.0000    Y=              0.0000    Z=              5.0181  Tot=              5.0181
 Quadrupole moment (field-independent basis, Debye-Ang):
   XX=            -15.3139   YY=            -15.3138   ZZ=            -19.0641
   XY=              0.0000   XZ=              0.0000   YZ=              0.0000

 \\#P ROCCSD(T)=(MaxCyc=150, Full)/Gen SCF=(maxcycle=400, vshift=200) P
 \PMP2-0=-124.0474164\MP4SDQ=-124.032852\CCSD=-124.0285961\CCSD(T)=-124
 Normal termination of Gaussian 16 at Sat Mar 24 00:37:36 2018.
