 Gaussian 16, Revision A.03,
 Gaussian 16:  ES64L-G16RevA.03 25-Dec-2016

 ----------------------------------------------------------------------
 #P ROCCSD(T)=(maxcyc=150, Window=(7,0), SaveAmplitudes, ReadAmplitudes
 )/Gen 5d 7f SCF=(maxcycles=300) Integral(NoXCTest, DKHSO) MaxDisk=500G
 B Pop=Regular Guess=Read
 ----------------------------------------------------------------------

 ---
 CrO
 ---
 Symbolic Z-matrix:
 Charge =  0 Multiplicity = 5

                         Standard orientation:
 ---------------------------------------------------------------------
 Center     Atomic      Atomic             Coordinates (Angstroms)
 Number     Number       Type             X           Y           Z
 ---------------------------------------------------------------------
      1         24           0        0.000000    0.000000    0.300000
      2          8           0        0.000000    0.000000   -0.900000
 ---------------------------------------------------------------------

 SCF Done:  E(ROHF) =  -1124.24858214     A.U. after   26 cycles
 E2 =    -0.9083947495D+00 EUMP2 =    -0.11251569768914D+04
 CCSD(T)
 CCSD(T)= -0.11251525515D+04

 Unable to determine electronic state:  an orbital has unidentified symmetry.
 Alpha  occ. eigenvalues -- -222.21295 -26.80200 -22.43635 -22.43490 -22.43036
 Alpha  occ. eigenvalues --  -20.63795  -3.68264  -2.47673  -2.42154  -2.38905
 Alpha  occ. eigenvalues --   -1.25144  -0.74840  -0.69011  -0.65525  -0.50339
 Alpha  occ. eigenvalues --   -0.50247  -0.29861  -0.26480
 Alpha virt. eigenvalues --    0.01398   0.02084   0.02567   0.02592   0.04854
 Alpha virt. eigenvalues --    0.05040   0.05466   0.05471   0.05511   0.05610
 Alpha virt. eigenvalues --    0.08643   0.08817   0.10293   0.13936   0.15003

 Mulliken charges and spin densities:
               1          2
     1  Cr   0.732337   3.830127
     2  O   -0.732337   0.169873
 Sum of Mulliken charges =  -0.00000   4.00000

 Dipole moment (field-independent basis, Debye):
    X=             -0.0000    Y=             -0.0000    Z=              0.2407  Tot=              0.2407
 Quadrupole moment (field-independent basis, Debye-Ang):
   XX=            -23.2742   YY=            -20.2980   ZZ=            -23.1980
   XY=             -0.0000   XZ=             -0.0000   YZ=             -0.0000

 1\1\GINC-C484-033\SP\ROCCSD(T)-RW\Gen\Cr1O1(5)\AANNABE\14-Mar-2018\0\\
 #P ROCCSD(T)=(maxcyc=150, Window=(7,0), SaveAmplitudes, ReadAmplitudes
 )/Gen 5d 7f SCF=(maxcycles=300) Integral(NoXCTest, DKHSO) MaxDisk=500G
 B Pop=Regular Guess=Read\\CrO\\0,5\Cr,0,0.,0.,0.\O,0,0.,0.,1.2\\Versio
 n=ES64L-G16RevA.03\HF=-1124.2485821\MP2=-1125.1569769\PUHF=-1124.24858
 21\PMP2-0=-1125.1569769\CCSD=-1125.113037\CCSD(T)=-1125.1525515\RMSD=2
 .696e-09\PG=C*V [C*(O1Cr1)]\\@

 Normal termination of Gaussian 16 at Wed Mar 14 15:20:02 2018.
