 Gaussian 16, Revision A.03,
 Gaussian 16:  ES64L-G16RevA.03 25-Dec-2016

 ----------------------------------------------------------------------
 #P ROCCSD(T)=(maxcyc=150, Full)/Gen 5d 7f SCF=(maxcycles=300) MaxDisk=
 500GB Pop=Regular Pseudo=Read Guess=Read
 ----------------------------------------------------------------------

 --
 Sc
 --
 Symbolic Z-matrix:
 Charge =  0 Multiplicity = 2

                         Standard orientation:
 ---------------------------------------------------------------------
 Center     Atomic      Atomic             Coordinates (Angstroms)
 Number     Number       Type             X           Y           Z
 ---------------------------------------------------------------------
      1         21           0        0.000000    0.000000    0.000000
 ---------------------------------------------------------------------

 SCF Done:  E(ROHF) =  -46.0565050684     A.U. after   21 cycles
 E2 =    -0.3695148471D+00 EUMP2 =    -0.46426019915439D+02
 CCSD(T)
 CCSD(T)= -0.46462561979D+02

 Unable to determine electronic state:  an orbital has unidentified symmetry.
 Alpha  occ. eigenvalues --   -2.63412  -1.63198  -1.63198  -1.59370  -0.34407
 Alpha  occ. eigenvalues --   -0.21549
 Alpha virt. eigenvalues --    0.01237   0.01334   0.01334   0.02285   0.03910
 Alpha virt. eigenvalues --    0.03919   0.03919   0.03940   0.04007   0.04785
 Alpha virt. eigenvalues --    0.04911   0.04911   0.10056   0.10395   0.10395

 Mulliken charges and spin densities:
               1          2
     1  Sc  -0.000000   1.000000
 Sum of Mulliken charges =  -0.00000   1.00000

 Dipole moment (field-independent basis, Debye):
    X=              0.0000    Y=             -0.0000    Z=              0.0000  Tot=              0.0000
 Quadrupole moment (field-independent basis, Debye-Ang):
   XX=            -23.3959   YY=            -23.3959   ZZ=            -23.0961
   XY=              0.0000   XZ=             -0.0000   YZ=              0.0000

 1\1\GINC-C506-012\SP\ROCCSD(T)-Full\Gen\Sc1(2)\AANNABE\16-Feb-2018\0\\
 #P ROCCSD(T)=(maxcyc=150, Full)/Gen 5d 7f SCF=(maxcycles=300) MaxDisk=
 500GB Pop=Regular Pseudo=Read Guess=Read\\Sc\\0,2\Sc,0,0.,0.,0.\\Versi
 on=ES64L-G16RevA.03\HF=-46.0565051\MP2=-46.4260199\MP3=-46.4477525\PUH
 F=-46.0565051\PMP2-0=-46.4260199\MP4SDQ=-46.4477416\CCSD=-46.4479902\C
 CSD(T)=-46.462562\RMSD=8.729e-09\PG=OH [O(Sc1)]\\@

 Normal termination of Gaussian 16 at Fri Feb 16 11:25:11 2018.
