 Gaussian 16, Revision A.03,
 Gaussian 16:  ES64L-G16RevA.03 25-Dec-2016

 ----------------------------------------------------------------------
 #P ROCCSD(T)=(maxcyc=150, Full, SaveAmplitudes, ReadAmplitudes)/Gen 5d
  7f SCF=(maxcycles=300) Integral(NoXCTest) MaxDisk=500GB Pop=Regular P
 seudo=Read Guess=Read IOp(5/15=2)
 ----------------------------------------------------------------------

 ---
 ScO
 ---
 Symbolic Z-matrix:
 Charge =  0 Multiplicity = 2

                         Standard orientation:
 ---------------------------------------------------------------------
 Center     Atomic      Atomic             Coordinates (Angstroms)
 Number     Number       Type             X           Y           Z
 ---------------------------------------------------------------------
      1         21           0        0.000000    0.000000    0.524138
      2          8           0        0.000000    0.000000   -1.375862
 ---------------------------------------------------------------------

 SCF Done:  E(ROHF) =  -61.9153790778     A.U. after   17 cycles
 E2 =    -0.6921845022D+00 EUMP2 =    -0.62607563579963D+02
 CCSD(T)
 CCSD(T)= -0.62640307776D+02

 The electronic state is 2-SG.
 Alpha  occ. eigenvalues --   -2.71529  -1.68463  -1.68383  -1.68383  -1.10997
 Alpha  occ. eigenvalues --   -0.40293  -0.36497  -0.36497  -0.27457
 Alpha virt. eigenvalues --   -0.00875  -0.00875   0.00900   0.01953   0.03042
 Alpha virt. eigenvalues --    0.03042   0.03350   0.03350   0.04098   0.04315
 Alpha virt. eigenvalues --    0.04315   0.04898   0.06054   0.06054   0.09955

 Mulliken charges and spin densities:
               1          2
     1  Sc   1.209492   0.977361
     2  O   -1.209492   0.022639
 Sum of Mulliken charges =  -0.00000   1.00000

 Dipole moment (field-independent basis, Debye):
    X=              0.0000    Y=              0.0000    Z=              6.6326  Tot=              6.6326
 Quadrupole moment (field-independent basis, Debye-Ang):
   XX=            -21.9739   YY=            -21.9739   ZZ=            -34.1172
   XY=              0.0000   XZ=              0.0000   YZ=              0.0000

 \\#P ROCCSD(T)=(maxcyc=150, Full, SaveAmplitudes, ReadAmplitudes)/Gen
 71\CCSD=-62.5928777\CCSD(T)=-62.6403078\RMSD=4.979e-09\PG=C*V [C*(O1Sc
 Normal termination of Gaussian 16 at Tue Mar 13 22:46:55 2018.
