 Gaussian 16, Revision A.03,
 Gaussian 16:  ES64L-G16RevA.03 25-Dec-2016

 ----------------------------------------------------------------------
 #P ROCCSD(T)=(maxcyc=150, Full)/Gen 5d 7f SCF=(maxcycles=300, NoVarAcc
 , VShift=200) MaxDisk=100GB Pop=Regular Pseudo=Read Guess=Read
 ----------------------------------------------------------------------

 --
 Mn
 --
 Symbolic Z-matrix:
 Charge =  0 Multiplicity = 6

                         Standard orientation:
 ---------------------------------------------------------------------
 Center     Atomic      Atomic             Coordinates (Angstroms)
 Number     Number       Type             X           Y           Z
 ---------------------------------------------------------------------
      1         25           0        0.000000    0.000000    0.000000
 ---------------------------------------------------------------------

 SCF Done:  E(ROHF) =  -103.430737574     A.U. after   22 cycles
 E2 =    -0.5927890946D+00 EUMP2 =    -0.10402352666841D+03
 CCSD(T)
 CCSD(T)= -0.10404390626D+03

 The electronic state is 6-A1G.
 Alpha  occ. eigenvalues --   -4.15093  -2.79353  -2.79353  -2.79353  -0.62933
 Alpha  occ. eigenvalues --   -0.62933  -0.62933  -0.62933  -0.62933  -0.26814
 Alpha virt. eigenvalues --    0.01739   0.01739   0.01739   0.02542   0.05832
 Alpha virt. eigenvalues --    0.05832   0.05832   0.06096   0.06096   0.06096
 Alpha virt. eigenvalues --    0.06096   0.06096   0.13387   0.19363   0.19363

 Mulliken charges and spin densities:
               1          2
     1  Mn  -0.000000   5.000000
 Sum of Mulliken charges =  -0.00000   5.00000

 Dipole moment (field-independent basis, Debye):
    X=              0.0000    Y=              0.0000    Z=              0.0000  Tot=              0.0000
 Quadrupole moment (field-independent basis, Debye-Ang):
   XX=            -18.8494   YY=            -18.8494   ZZ=            -18.8494
   XY=              0.0000   XZ=              0.0000   YZ=              0.0000

 1\1\GINC-C455-014\SP\ROCCSD(T)-Full\Gen\Mn1(6)\AANNABE\26-Mar-2018\0\\
 #P ROCCSD(T)=(maxcyc=150, Full)/Gen 5d 7f SCF=(maxcycles=300, NoVarAcc
 , VShift=200) MaxDisk=100GB Pop=Regular Pseudo=Read Guess=Read\\Mn\\0,
 6\Mn,0,0.,0.,0.\\Version=ES64L-G16RevA.03\State=6-A1G\HF=-103.4307376\
 MP2=-104.0235267\MP3=-104.0230946\PUHF=-103.4307376\PMP2-0=-104.023526
 7\MP4SDQ=-104.0254487\CCSD=-104.0256425\CCSD(T)=-104.0439063\RMSD=6.32
 8e-09\PG=OH [O(Mn1)]\\@

 Normal termination of Gaussian 16 at Mon Mar 26 10:56:50 2018.
