 Gaussian 16, Revision A.03,
 Gaussian 16:  ES64L-G16RevA.03 25-Dec-2016

 ----------------------------------------------------------------------
 #P ROCCSD(T)=(MaxCyc=150, Full)/Gen SCF=(maxcycle=400, vshift=200) Pse
 udo=Read Integral(NoXCTest) Pop=Regular MaxDisk=500GB Guess=Read IOp(5
 /15=2)
 ----------------------------------------------------------------------

 ---
 CoH
 ---
 Symbolic Z-matrix:
 Charge =  0 Multiplicity = 3

                         Standard orientation:
 ---------------------------------------------------------------------
 Center     Atomic      Atomic             Coordinates (Angstroms)
 Number     Number       Type             X           Y           Z
 ---------------------------------------------------------------------
      1         27           0        0.000000    0.000000    0.060714
      2          1           0        0.000000    0.000000   -1.639286
 ---------------------------------------------------------------------

 SCF Done:  E(ROHF) =  -145.420625529     A.U. after   37 cycles
 E2 =    -0.9065429737D+00 EUMP2 =    -0.14632716850268D+03
 CCSD(T)
 CCSD(T)= -0.14631129448D+03

 Unable to determine electronic state:  partially filled degenerate orbitals.
 Alpha  occ. eigenvalues --   -4.40311  -2.92523  -2.92502  -2.92502  -0.49180
 Alpha  occ. eigenvalues --   -0.48765  -0.44293  -0.43897  -0.43897  -0.32490
 Alpha virt. eigenvalues --   -0.00401   0.02360   0.02360   0.03141   0.04289
 Alpha virt. eigenvalues --    0.06982   0.07288   0.07302   0.07555   0.07555
 Alpha virt. eigenvalues --    0.08506   0.08506   0.10210   0.17680   0.19677

 Mulliken charges and spin densities:
               1          2
     1  Co   0.360923   1.995810
     2  H   -0.360923   0.004190
 Sum of Mulliken charges =  -0.00000   2.00000

 Dipole moment (field-independent basis, Debye):
    X=              0.0000    Y=              0.0000    Z=              4.7317  Tot=              4.7317
 Quadrupole moment (field-independent basis, Debye-Ang):
   XX=            -13.8955   YY=            -13.8955   ZZ=            -18.8407
   XY=              0.0000   XZ=              0.0000   YZ=              0.0000

 \\#P ROCCSD(T)=(MaxCyc=150, Full)/Gen SCF=(maxcycle=400, vshift=200) P
 \PMP2-0=-146.3271685\MP4SDQ=-146.3020708\CCSD=-146.2794702\CCSD(T)=-14
 Normal termination of Gaussian 16 at Sat Apr 21 23:37:07 2018.
