 Gaussian 16, Revision A.03,
 Gaussian 16:  ES64L-G16RevA.03 25-Dec-2016

 ----------------------------------------------------------------------
 #P ROCCSD(T)=(MaxCyc=150, Full)/Gen SCF=(maxcycle=400, vshift=200) Pse
 udo=Read Integral(NoXCTest) Pop=Regular MaxDisk=500GB Guess=Read IOp(5
 /15=2)
 ----------------------------------------------------------------------

 ---
 CoH
 ---
 Symbolic Z-matrix:
 Charge =  0 Multiplicity = 3

                         Standard orientation:
 ---------------------------------------------------------------------
 Center     Atomic      Atomic             Coordinates (Angstroms)
 Number     Number       Type             X           Y           Z
 ---------------------------------------------------------------------
      1         27           0        0.000000    0.000000    0.060714
      2          1           0        0.000000    0.000000   -1.639286
 ---------------------------------------------------------------------

 SCF Done:  E(ROHF) =  -145.418996188     A.U. after   80 cycles
 E2 =    -0.8654278390D+00 EUMP2 =    -0.14628442402714D+03
 CCSD(T)
 CCSD(T)= -0.14627024534D+03

 Unable to determine electronic state:  partially filled degenerate orbitals.
 Alpha  occ. eigenvalues --   -4.40349  -2.92536  -2.92516  -2.92516  -0.49170
 Alpha  occ. eigenvalues --   -0.48753  -0.44281  -0.43882  -0.43882  -0.32489
 Alpha virt. eigenvalues --   -0.00385   0.02612   0.02612   0.03472   0.04570
 Alpha virt. eigenvalues --    0.09302   0.09302   0.10132   0.11221   0.11266
 Alpha virt. eigenvalues --    0.11495   0.11495   0.11649   0.18632   0.24441

 Mulliken charges and spin densities:
               1          2
     1  Co   0.379925   1.988759
     2  H   -0.379925   0.011241
 Sum of Mulliken charges =  -0.00000   2.00000

 Dipole moment (field-independent basis, Debye):
    X=              0.0000    Y=              0.0000    Z=              4.7360  Tot=              4.7360
 Quadrupole moment (field-independent basis, Debye-Ang):
   XX=            -13.9099   YY=            -13.9099   ZZ=            -18.8345
   XY=              0.0000   XZ=              0.0000   YZ=              0.0000

 \\#P ROCCSD(T)=(MaxCyc=150, Full)/Gen SCF=(maxcycle=400, vshift=200) P
 PMP2-0=-146.284424\MP4SDQ=-146.2630304\CCSD=-146.2399703\CCSD(T)=-146.
 Normal termination of Gaussian 16 at Sat Apr 21 22:53:07 2018.
