 Gaussian 16, Revision A.03,
 Gaussian 16:  ES64L-G16RevA.03 25-Dec-2016

 ----------------------------------------------------------------------
 #P ROCCSD(T)=(MaxCyc=150, Full)/Gen SCF=(maxcycle=400, vshift=200) Pse
 udo=Read Integral(NoXCTest) Pop=Regular MaxDisk=500GB Guess=Read IOp(5
 /15=2)
 ----------------------------------------------------------------------

 ---
 CoH
 ---
 Symbolic Z-matrix:
 Charge =  0 Multiplicity = 3

                         Standard orientation:
 ---------------------------------------------------------------------
 Center     Atomic      Atomic             Coordinates (Angstroms)
 Number     Number       Type             X           Y           Z
 ---------------------------------------------------------------------
      1         27           0        0.000000    0.000000    0.060714
      2          1           0        0.000000    0.000000   -1.639286
 ---------------------------------------------------------------------

 SCF Done:  E(ROHF) =  -145.421124197     A.U. after   27 cycles
 E2 =    -0.9262914336D+00 EUMP2 =    -0.14634741563018D+03
 CCSD(T)
 CCSD(T)= -0.14632927062D+03

 Unable to determine electronic state:  partially filled degenerate orbitals.
 Alpha  occ. eigenvalues --   -4.40327  -2.92521  -2.92500  -2.92500  -0.49178
 Alpha  occ. eigenvalues --   -0.48763  -0.44298  -0.43903  -0.43903  -0.32491
 Alpha virt. eigenvalues --   -0.00435   0.02283   0.02283   0.02817   0.03704
 Alpha virt. eigenvalues --    0.06409   0.06589   0.06600   0.06884   0.06884
 Alpha virt. eigenvalues --    0.08113   0.08113   0.08891   0.14177   0.17556

 Mulliken charges and spin densities:
               1          2
     1  Co   0.329767   1.993949
     2  H   -0.329767   0.006051
 Sum of Mulliken charges =  -0.00000   2.00000

 Dipole moment (field-independent basis, Debye):
    X=              0.0000    Y=              0.0000    Z=              4.7312  Tot=              4.7312
 Quadrupole moment (field-independent basis, Debye-Ang):
   XX=            -13.8948   YY=            -13.8947   ZZ=            -18.8410
   XY=              0.0000   XZ=              0.0000   YZ=              0.0000

 \\#P ROCCSD(T)=(MaxCyc=150, Full)/Gen SCF=(maxcycle=400, vshift=200) P
 \PMP2-0=-146.3474156\MP4SDQ=-146.3191561\CCSD=-146.2968712\CCSD(T)=-14
 Normal termination of Gaussian 16 at Sat Apr 28 21:11:02 2018.
