 Gaussian 16, Revision A.03,
 Gaussian 16:  ES64L-G16RevA.03 25-Dec-2016

 ----------------------------------------------------------------------
 #P ROCCSD(T)=(maxcyc=150, Full, SaveAmplitudes, ReadAmplitudes)/Gen 5d
  7f SCF=(maxcycles=300) Integral(NoXCTest) MaxDisk=500GB Pop=Regular P
 seudo=Read Guess=Read
 ----------------------------------------------------------------------

 ---
 TiO
 ---
 Symbolic Z-matrix:
 Charge =  0 Multiplicity = 3

                         Standard orientation:
 ---------------------------------------------------------------------
 Center     Atomic      Atomic             Coordinates (Angstroms)
 Number     Number       Type             X           Y           Z
 ---------------------------------------------------------------------
      1         22           0        0.000000    0.000000    0.453333
      2          8           0        0.000000    0.000000   -1.246667
 ---------------------------------------------------------------------

 SCF Done:  E(ROHF) =  -73.5364875657     A.U. after   20 cycles
 E2 =    -0.7893888358D+00 EUMP2 =    -0.74325876401447D+02
 CCSD(T)
 CCSD(T)= -0.74355614319D+02

 Unable to determine electronic state:  an orbital has unidentified symmetry.
 Alpha  occ. eigenvalues --   -3.06818  -1.92445  -1.92445  -1.89337  -1.13691
 Alpha  occ. eigenvalues --   -0.47729  -0.45011  -0.42005  -0.42005  -0.27639
 Alpha virt. eigenvalues --   -0.00078  -0.00078   0.01141   0.02242   0.03355
 Alpha virt. eigenvalues --    0.03355   0.03646   0.03735   0.04149   0.04239
 Alpha virt. eigenvalues --    0.04239   0.04714   0.08324   0.10164   0.11406

 Mulliken charges and spin densities:
               1          2
     1  Ti   1.053100   1.972870
     2  O   -1.053100   0.027130
 Sum of Mulliken charges =  -0.00000   2.00000

 Dipole moment (field-independent basis, Debye):
    X=              0.0000    Y=              0.0000    Z=              5.1231  Tot=              5.1231
 Quadrupole moment (field-independent basis, Debye-Ang):
   XX=            -21.4496   YY=            -21.4496   ZZ=            -29.8215
   XY=              0.0000   XZ=              0.0000   YZ=              0.0000

 \\#P ROCCSD(T)=(maxcyc=150, Full, SaveAmplitudes, ReadAmplitudes)/Gen
 -0=-74.3258764\CCSD=-74.3054294\CCSD(T)=-74.3556143\RMSD=6.259e-09\PG=
 Normal termination of Gaussian 16 at Tue Mar 13 02:16:33 2018.
