 Gaussian 16, Revision A.03,
 Gaussian 16:  ES64L-G16RevA.03 25-Dec-2016

 ----------------------------------------------------------------------
 #P ROCCSD(T)=(maxcyc=150, Full)/Gen 5d 7f SCF=(maxcycles=300) Integral
 (NoXCTest) MaxDisk=500GB Pop=Regular Pseudo=Read IOp(5/15=2) Guess=Rea
 d
 ----------------------------------------------------------------------

 ---
 ScH
 ---
 Symbolic Z-matrix:
 Charge =  0 Multiplicity = 1

                         Standard orientation:
 ---------------------------------------------------------------------
 Center     Atomic      Atomic             Coordinates (Angstroms)
 Number     Number       Type             X           Y           Z
 ---------------------------------------------------------------------
      1         21           0        0.000000    0.000000    0.086364
      2          1           0        0.000000    0.000000   -1.813636
 ---------------------------------------------------------------------

 SCF Done:  E(ROHF) =  -46.7949065324     A.U. after    9 cycles
 E2 =    -0.4275118140D+00 EUMP2 =    -0.47222418346455D+02
 CCSD(T)
 CCSD(T)= -0.47265144621D+02

 The electronic state is 1-SG.
 Alpha  occ. eigenvalues --   -2.74118  -1.67481  -1.67481  -1.67337  -0.39246
 Alpha  occ. eigenvalues --   -0.23713
 Alpha virt. eigenvalues --    0.01061   0.01061   0.01364   0.01746   0.02584
 Alpha virt. eigenvalues --    0.02584   0.02669   0.02669   0.02713   0.03845
 Alpha virt. eigenvalues --    0.03960   0.03960   0.06670   0.06670   0.07036

 Mulliken charges and spin densities:
               1          2
     1  Sc   0.371148   0.000000
     2  H   -0.371148   0.000000
 Sum of Mulliken charges =  -0.00000   0.00000

 Dipole moment (field-independent basis, Debye):
    X=              0.0000    Y=              0.0000    Z=              1.8222  Tot=              1.8222
 Quadrupole moment (field-independent basis, Debye-Ang):
   XX=            -22.8229   YY=            -22.8229   ZZ=            -27.4984
   XY=              0.0000   XZ=              0.0000   YZ=              0.0000

 P ROCCSD(T)=(maxcyc=150, Full)/Gen 5d 7f SCF=(maxcycles=300) Integral(
 PMP2-0=-47.2224183\MP4SDQ=-47.244893\CCSD=-47.2451917\CCSD(T)=-47.2651
 Normal termination of Gaussian 16 at Wed Feb 14 08:27:23 2018.
