 Gaussian 16, Revision A.03,
 Gaussian 16:  ES64L-G16RevA.03 25-Dec-2016

 ----------------------------------------------------------------------
 #P ROCCSD(T)=(maxcyc=150, Full)/Gen 5d 7f SCF=(maxcycles=300) Integral
 (NoXCTest) MaxDisk=500GB Pop=Regular Pseudo=Read IOp(5/15=2) Guess=Rea
 d
 ----------------------------------------------------------------------

 ---
 ScH
 ---
 Symbolic Z-matrix:
 Charge =  0 Multiplicity = 1

                         Standard orientation:
 ---------------------------------------------------------------------
 Center     Atomic      Atomic             Coordinates (Angstroms)
 Number     Number       Type             X           Y           Z
 ---------------------------------------------------------------------
      1         21           0        0.000000    0.000000    0.077273
      2          1           0        0.000000    0.000000   -1.622727
 ---------------------------------------------------------------------

 SCF Done:  E(ROHF) =  -46.5973254233     A.U. after    9 cycles
 E2 =    -0.4298260174D+00 EUMP2 =    -0.47027151440711D+02
 CCSD(T)
 CCSD(T)= -0.47067457775D+02

 The electronic state is 1-SG.
 Alpha  occ. eigenvalues --   -2.68642  -1.65757  -1.65577  -1.65577  -0.41712
 Alpha  occ. eigenvalues --   -0.22899
 Alpha virt. eigenvalues --    0.01156   0.01156   0.01475   0.01674   0.02603
 Alpha virt. eigenvalues --    0.02603   0.02650   0.02650   0.02681   0.04015
 Alpha virt. eigenvalues --    0.04109   0.04109   0.06961   0.06999   0.06999

 Mulliken charges and spin densities:
               1          2
     1  Sc   0.384734   0.000000
     2  H   -0.384734   0.000000
 Sum of Mulliken charges =  -0.00000   0.00000

 Dipole moment (field-independent basis, Debye):
    X=              0.0000    Y=              0.0000    Z=              1.2347  Tot=              1.2347
 Quadrupole moment (field-independent basis, Debye-Ang):
   XX=            -23.1642   YY=            -23.1642   ZZ=            -26.0211
   XY=              0.0000   XZ=              0.0000   YZ=              0.0000

 P ROCCSD(T)=(maxcyc=150, Full)/Gen 5d 7f SCF=(maxcycles=300) Integral(
 PMP2-0=-47.0271514\MP4SDQ=-47.0480702\CCSD=-47.0479612\CCSD(T)=-47.067
 Normal termination of Gaussian 16 at Wed Feb 14 04:38:04 2018.
