 Gaussian 16, Revision A.03,
 Gaussian 16:  ES64L-G16RevA.03 25-Dec-2016

 ----------------------------------------------------------------------
 #P ROCCSD(T)=(maxcyc=150, Full)/Gen 5d 7f SCF=(maxcycles=300) Integral
 (NoXCTest, DKHSO) MaxDisk=500GB Pop=Regular IOp(5/15=2) Guess=Read
 ----------------------------------------------------------------------

 ---
 CrH
 ---
 Symbolic Z-matrix:
 Charge =  0 Multiplicity = 6

                         Standard orientation:
 ---------------------------------------------------------------------
 Center     Atomic      Atomic             Coordinates (Angstroms)
 Number     Number       Type             X           Y           Z
 ---------------------------------------------------------------------
      1         24           0        0.000000    0.000000    0.044000
      2          1           0        0.000000    0.000000   -1.056000
 ---------------------------------------------------------------------

 SCF Done:  E(ROHF) =  -1050.04302628     A.U. after   55 cycles
 E2 =    -0.1019949514D+01 EUMP2 =    -0.10510629757910D+04
 CCSD(T)
 CCSD(T)= -0.10510655728D+04

 The electronic state is 6-SG.
 Alpha  occ. eigenvalues -- -222.08814 -26.67152 -22.30621 -22.30621 -22.30536
 Alpha  occ. eigenvalues --   -3.56636  -2.32346  -2.31554  -2.31554  -0.48066
 Alpha  occ. eigenvalues --   -0.43605  -0.43605  -0.40744  -0.40744  -0.24937
 Alpha virt. eigenvalues --    0.01598   0.01757   0.01757   0.02271   0.04718
 Alpha virt. eigenvalues --    0.05506   0.05506   0.05523   0.05523   0.05929
 Alpha virt. eigenvalues --    0.05929   0.05980   0.09369   0.13471   0.16851

 Mulliken charges and spin densities:
               1          2
     1  Cr   0.272321   4.982945
     2  H   -0.272321   0.017055
 Sum of Mulliken charges =  -0.00000   5.00000

 Dipole moment (field-independent basis, Debye):
    X=              0.0000    Y=             -0.0000    Z=              2.0355  Tot=              2.0355
 Quadrupole moment (field-independent basis, Debye-Ang):
   XX=            -16.8451   YY=            -16.8451   ZZ=            -18.2902
   XY=             -0.0000   XZ=              0.0000   YZ=             -0.0000

 \\#P ROCCSD(T)=(maxcyc=150, Full)/Gen 5d 7f SCF=(maxcycles=300) Integr
 Normal termination of Gaussian 16 at Tue Feb 13 19:45:32 2018.
