 Gaussian 16, Revision A.03,
 Gaussian 16:  ES64L-G16RevA.03 25-Dec-2016

 ----------------------------------------------------------------------
 #P ROCCSD(T)=(maxcyc=150, Full, SaveAmplitudes, ReadAmplitudes)/Gen 5d
  7f SCF=(maxcycles=300) Integral(NoXCTest) MaxDisk=500GB Pop=Regular P
 seudo=Read Guess=Read IOp(5/15=2)
 ----------------------------------------------------------------------

 ---
 MnO
 ---
 Symbolic Z-matrix:
 Charge =  0 Multiplicity = 6

                         Standard orientation:
 ---------------------------------------------------------------------
 Center     Atomic      Atomic             Coordinates (Angstroms)
 Number     Number       Type             X           Y           Z
 ---------------------------------------------------------------------
      1         25           0        0.000000    0.000000    0.315152
      2          8           0        0.000000    0.000000   -0.984848
 ---------------------------------------------------------------------

 SCF Done:  E(ROHF) =  -119.030839357     A.U. after   32 cycles
 E2 =    -0.9294763440D+00 EUMP2 =    -0.11996031570063D+03
 CCSD(T)
 CCSD(T)= -0.11996735509D+03

 The electronic state is 6-SG.
 Alpha  occ. eigenvalues --   -4.14313  -2.77840  -2.77840  -2.77838  -1.27723
 Alpha  occ. eigenvalues --   -0.73382  -0.73382  -0.61351  -0.61351  -0.60186
 Alpha  occ. eigenvalues --   -0.40647  -0.40647  -0.30197
 Alpha virt. eigenvalues --    0.01909   0.02425   0.02425   0.03166   0.06381
 Alpha virt. eigenvalues --    0.07595   0.07595   0.08766   0.08766   0.09366
 Alpha virt. eigenvalues --    0.09366   0.10249   0.12075   0.16378   0.24535

 Mulliken charges and spin densities:
               1          2
     1  Mn   0.798119   4.759969
     2  O   -0.798119   0.240031
 Sum of Mulliken charges =  -0.00000   5.00000

 Dipole moment (field-independent basis, Debye):
    X=              0.0000    Y=              0.0000    Z=              2.7265  Tot=              2.7265
 Quadrupole moment (field-independent basis, Debye-Ang):
   XX=            -19.8395   YY=            -19.8395   ZZ=            -22.8960
   XY=              0.0000   XZ=              0.0000   YZ=              0.0000

 \\#P ROCCSD(T)=(maxcyc=150, Full, SaveAmplitudes, ReadAmplitudes)/Gen
 .9421105\CCSD=-119.9280416\CCSD(T)=-119.9673551\RMSD=2.640e-09\PG=C*V
 Normal termination of Gaussian 16 at Sat Mar 10 06:07:41 2018.
