 Gaussian 16, Revision A.03,
 Gaussian 16:  ES64L-G16RevA.03 25-Dec-2016

 ----------------------------------------------------------------------
 #P ROCCSD(T)=(maxcyc=150, Full)/Gen 5d 7f SCF=(maxcycles=300, NoVarAcc
 , VShift=200) MaxDisk=100GB Pop=Regular Pseudo=Read Guess=Read
 ----------------------------------------------------------------------

 --
 Ti
 --
 Symbolic Z-matrix:
 Charge =  0 Multiplicity = 3

                         Standard orientation:
 ---------------------------------------------------------------------
 Center     Atomic      Atomic             Coordinates (Angstroms)
 Number     Number       Type             X           Y           Z
 ---------------------------------------------------------------------
      1         22           0        0.000000    0.000000    0.000000
 ---------------------------------------------------------------------

 SCF Done:  E(ROHF) =  -57.7483807814     A.U. after   21 cycles
 E2 =    -0.4306419335D+00 EUMP2 =    -0.58179022714823D+02
 CCSD(T)
 CCSD(T)= -0.58214737703D+02

 Unable to determine electronic state:  an orbital has unidentified symmetry.
 Alpha  occ. eigenvalues --   -3.02189  -1.88609  -1.88609  -1.88609  -0.43870
 Alpha  occ. eigenvalues --   -0.43870  -0.23133
 Alpha virt. eigenvalues --    0.01403   0.01403   0.01403   0.02230   0.03900
 Alpha virt. eigenvalues --    0.03900   0.03900   0.03946   0.03946   0.04854
 Alpha virt. eigenvalues --    0.04854   0.04854   0.10417   0.10417   0.10417

 Mulliken charges and spin densities:
               1          2
     1  Ti  -0.000000   2.000000
 Sum of Mulliken charges =  -0.00000   2.00000

 Dipole moment (field-independent basis, Debye):
    X=              0.0000    Y=              0.0000    Z=             -0.0000  Tot=              0.0000
 Quadrupole moment (field-independent basis, Debye-Ang):
   XX=            -21.7703   YY=            -21.7703   ZZ=            -21.7703
   XY=             -0.0000   XZ=             -0.0000   YZ=              0.0000

 1\1\GINC-C464-113\SP\ROCCSD(T)-Full\Gen\Ti1(3)\AANNABE\13-Mar-2018\0\\
 #P ROCCSD(T)=(maxcyc=150, Full)/Gen 5d 7f SCF=(maxcycles=300, NoVarAcc
 , VShift=200) MaxDisk=100GB Pop=Regular Pseudo=Read Guess=Read\\Ti\\0,
 3\Ti,0,0.,0.,0.\\Version=ES64L-G16RevA.03\HF=-57.7483808\MP2=-58.17902
 27\MP3=-58.1983178\PUHF=-57.7483808\PMP2-0=-58.1790227\MP4SDQ=-58.1981
 971\CCSD=-58.1985655\CCSD(T)=-58.2147377\RMSD=7.116e-09\PG=OH [O(Ti1)]
 \\@

 Normal termination of Gaussian 16 at Tue Mar 13 12:44:28 2018.
