 Gaussian 16, Revision A.03,
 Gaussian 16:  ES64L-G16RevA.03 25-Dec-2016

 ----------------------------------------------------------------------
 #P ROCCSD(T)=(maxcyc=150, Window=(7,0), SaveAmplitudes, ReadAmplitudes
 )/Gen 5d 7f SCF=(maxcycles=300) Integral(NoXCTest, DKHSO) MaxDisk=500G
 B Pop=Regular Guess=Read IOp(5/15=2)
 ----------------------------------------------------------------------

 ---
 MnO
 ---
 Symbolic Z-matrix:
 Charge =  0 Multiplicity = 6

                         Standard orientation:
 ---------------------------------------------------------------------
 Center     Atomic      Atomic             Coordinates (Angstroms)
 Number     Number       Type             X           Y           Z
 ---------------------------------------------------------------------
      1         25           0        0.000000    0.000000    0.315152
      2          8           0        0.000000    0.000000   -0.984848
 ---------------------------------------------------------------------

 SCF Done:  E(ROHF) =  -1232.06366315     A.U. after   31 cycles
 E2 =    -0.9193404273D+00 EUMP2 =    -0.12329830035775D+04
 CCSD(T)
 CCSD(T)= -0.12329805311D+04

 The electronic state is 6-SG.
 Alpha  occ. eigenvalues -- -242.50406 -29.60566 -24.96041 -24.96041 -24.95251
 Alpha  occ. eigenvalues --  -20.55017  -4.07359  -2.72690  -2.71986  -2.71986
 Alpha  occ. eigenvalues --   -1.25927  -0.73273  -0.73273  -0.61236  -0.61236
 Alpha  occ. eigenvalues --   -0.59964  -0.40534  -0.40534  -0.30147
 Alpha virt. eigenvalues --    0.01928   0.02418   0.02418   0.03165   0.06435
 Alpha virt. eigenvalues --    0.07581   0.07581   0.08759   0.08759   0.09358
 Alpha virt. eigenvalues --    0.09358   0.10302   0.12083   0.16448   0.24533

 Mulliken charges and spin densities:
               1          2
     1  Mn   0.808691   4.767355
     2  O   -0.808691   0.232645
 Sum of Mulliken charges =  -0.00000   5.00000

 Dipole moment (field-independent basis, Debye):
    X=              0.0000    Y=              0.0000    Z=              2.7174  Tot=              2.7174
 Quadrupole moment (field-independent basis, Debye-Ang):
   XX=            -20.1799   YY=            -20.1799   ZZ=            -23.3037
   XY=              0.0000   XZ=              0.0000   YZ=              0.0000

 1\1\GINC-C493-001\SP\ROCCSD(T)-RW\Gen\Mn1O1(6)\AANNABE\14-Mar-2018\0\\
 #P ROCCSD(T)=(maxcyc=150, Window=(7,0), SaveAmplitudes, ReadAmplitudes
 )/Gen 5d 7f SCF=(maxcycles=300) Integral(NoXCTest, DKHSO) MaxDisk=500G
 B Pop=Regular Guess=Read IOp(5/15=2)\\MnO\\0,6\Mn,0,0.,0.,0.\O,0,0.,0.
 ,1.3\\Version=ES64L-G16RevA.03\State=6-SG\HF=-1232.0636632\MP2=-1232.9
 830036\MP3=-1232.9073237\PUHF=-1232.0636632\PMP2-0=-1232.9830036\MP4SD
 Q=-1232.9599436\CCSD=-1232.9421358\CCSD(T)=-1232.9805311\RMSD=3.676e-0
 9\PG=C*V [C*(O1Mn1)]\\@

 Normal termination of Gaussian 16 at Wed Mar 14 14:11:27 2018.
