 Gaussian 16, Revision A.03,
 Gaussian 16:  ES64L-G16RevA.03 25-Dec-2016

 ----------------------------------------------------------------------
 #P ROCCSD(T)=(MaxCyc=150, Full)/Gen SCF=(maxcycle=400) Pseudo=Read Int
 egral(NoXCTest) Pop=Regular MaxDisk=500GB Guess=Read IOp(5/15=2)
 ----------------------------------------------------------------------

 ---
 CuH
 ---
 Symbolic Z-matrix:
 Charge =  0 Multiplicity = 1

                         Standard orientation:
 ---------------------------------------------------------------------
 Center     Atomic      Atomic             Coordinates (Angstroms)
 Number     Number       Type             X           Y           Z
 ---------------------------------------------------------------------
      1         29           0        0.000000    0.000000    0.046667
      2          1           0        0.000000    0.000000   -1.353333
 ---------------------------------------------------------------------

 SCF Done:  E(ROHF) =  -196.773076337     A.U. after   13 cycles
 E2 =    -0.1119253522D+01 EUMP2 =    -0.19789232985956D+03
 CCSD(T)
 CCSD(T)= -0.19781150247D+03

 The electronic state is 1-SG.
 Alpha  occ. eigenvalues --   -4.94412  -3.35577  -3.34967  -3.34967  -0.51461
 Alpha  occ. eigenvalues --   -0.50143  -0.50143  -0.49742  -0.49742  -0.33999
 Alpha virt. eigenvalues --    0.00279   0.02946   0.02946   0.03514   0.05579
 Alpha virt. eigenvalues --    0.10054   0.10311   0.10311   0.17228   0.19528
 Alpha virt. eigenvalues --    0.19528   0.20443   0.20443   0.21670   0.25894

 Mulliken charges and spin densities:
               1          2
     1  Cu   0.356591   0.000000
     2  H   -0.356591   0.000000
 Sum of Mulliken charges =  -0.00000   0.00000

 Dipole moment (field-independent basis, Debye):
    X=              0.0000    Y=              0.0000    Z=              3.8271  Tot=              3.8271
 Quadrupole moment (field-independent basis, Debye-Ang):
   XX=            -13.6192   YY=            -13.6192   ZZ=            -15.4270
   XY=              0.0000   XZ=              0.0000   YZ=              0.0000

 P ROCCSD(T)=(MaxCyc=150, Full)/Gen SCF=(maxcycle=400) Pseudo=Read Inte
 2-0=-197.8923299\MP4SDQ=-197.8523064\CCSD=-197.7734514\CCSD(T)=-197.81
 Normal termination of Gaussian 16 at Wed Apr  4 19:00:32 2018.
