 Gaussian 16, Revision A.03,
 Gaussian 16:  ES64L-G16RevA.03 25-Dec-2016

 ----------------------------------------------------------------------
 #P ROCCSD(T)=(MaxCyc=150, Full)/Gen SCF=(maxcycle=400) Pseudo=Read Int
 egral(NoXCTest) Pop=Regular MaxDisk=500GB Guess=Read IOp(5/15=2)
 ----------------------------------------------------------------------

 ---
 CuH
 ---
 Symbolic Z-matrix:
 Charge =  0 Multiplicity = 1

                         Standard orientation:
 ---------------------------------------------------------------------
 Center     Atomic      Atomic             Coordinates (Angstroms)
 Number     Number       Type             X           Y           Z
 ---------------------------------------------------------------------
      1         29           0        0.000000    0.000000    0.046667
      2          1           0        0.000000    0.000000   -1.353333
 ---------------------------------------------------------------------

 SCF Done:  E(ROHF) =  -196.776151285     A.U. after   10 cycles
 E2 =    -0.1170903089D+01 EUMP2 =    -0.19794705437436D+03
 CCSD(T)
 CCSD(T)= -0.19786468824D+03

 The electronic state is 1-SG.
 Alpha  occ. eigenvalues --   -4.94374  -3.35540  -3.34936  -3.34936  -0.51460
 Alpha  occ. eigenvalues --   -0.50149  -0.50149  -0.49753  -0.49753  -0.34002
 Alpha virt. eigenvalues --    0.00258   0.02654   0.02654   0.03181   0.05196
 Alpha virt. eigenvalues --    0.08958   0.08958   0.09024   0.13453   0.13484
 Alpha virt. eigenvalues --    0.13484   0.13945   0.13945   0.20135   0.22360

 Mulliken charges and spin densities:
               1          2
     1  Cu   0.342916   0.000000
     2  H   -0.342916   0.000000
 Sum of Mulliken charges =   0.00000   0.00000

 Dipole moment (field-independent basis, Debye):
    X=              0.0000    Y=              0.0000    Z=              3.8163  Tot=              3.8163
 Quadrupole moment (field-independent basis, Debye-Ang):
   XX=            -13.6092   YY=            -13.6092   ZZ=            -15.4452
   XY=              0.0000   XZ=              0.0000   YZ=              0.0000

 P ROCCSD(T)=(MaxCyc=150, Full)/Gen SCF=(maxcycle=400) Pseudo=Read Inte
 2-0=-197.9470544\MP4SDQ=-197.902613\CCSD=-197.8245749\CCSD(T)=-197.864
 Normal termination of Gaussian 16 at Wed Apr  4 19:54:24 2018.
