 Gaussian 16, Revision A.03,
 Gaussian 16:  ES64L-G16RevA.03 25-Dec-2016

 ----------------------------------------------------------------------
 #P ROCCSD(T)=(MaxCyc=150, Full)/Gen SCF=(maxcycle=400) Pseudo=Read Int
 egral(NoXCTest) Pop=Regular MaxDisk=500GB Guess=Read IOp(5/15=2)
 ----------------------------------------------------------------------

 ---
 CuH
 ---
 Symbolic Z-matrix:
 Charge =  0 Multiplicity = 1

                         Standard orientation:
 ---------------------------------------------------------------------
 Center     Atomic      Atomic             Coordinates (Angstroms)
 Number     Number       Type             X           Y           Z
 ---------------------------------------------------------------------
      1         29           0        0.000000    0.000000    0.046667
      2          1           0        0.000000    0.000000   -1.353333
 ---------------------------------------------------------------------

 SCF Done:  E(ROHF) =  -196.776298739     A.U. after    7 cycles
 E2 =    -0.1195497696D+01 EUMP2 =    -0.19797179643431D+03
 CCSD(T)
 CCSD(T)= -0.19788716802D+03

 The electronic state is 1-SG.
 Alpha  occ. eigenvalues --   -4.94378  -3.35541  -3.34937  -3.34937  -0.51460
 Alpha  occ. eigenvalues --   -0.50151  -0.50151  -0.49755  -0.49755  -0.34003
 Alpha virt. eigenvalues --    0.00181   0.02568   0.02568   0.02907   0.04411
 Alpha virt. eigenvalues --    0.07791   0.08595   0.08595   0.12072   0.12072
 Alpha virt. eigenvalues --    0.12085   0.12521   0.12521   0.15279   0.18651

 Mulliken charges and spin densities:
               1          2
     1  Cu   0.300481   0.000000
     2  H   -0.300481   0.000000
 Sum of Mulliken charges =   0.00000   0.00000

 Dipole moment (field-independent basis, Debye):
    X=              0.0000    Y=              0.0000    Z=              3.8145  Tot=              3.8145
 Quadrupole moment (field-independent basis, Debye-Ang):
   XX=            -13.6077   YY=            -13.6077   ZZ=            -15.4477
   XY=              0.0000   XZ=              0.0000   YZ=              0.0000

 P ROCCSD(T)=(MaxCyc=150, Full)/Gen SCF=(maxcycle=400) Pseudo=Read Inte
 2-0=-197.9717964\MP4SDQ=-197.923823\CCSD=-197.8463026\CCSD(T)=-197.887
 Normal termination of Gaussian 16 at Wed Apr  4 22:40:44 2018.
