 Gaussian 16, Revision A.03,
 Gaussian 16:  ES64L-G16RevA.03 25-Dec-2016

 ----------------------------------------------------------------------
 #P ROCCSD(T)=(maxcyc=150, Full)/Gen 5d 7f SCF=(maxcycles=300, NoVarAcc
 , VShift=200) MaxDisk=100GB Pop=Regular Pseudo=Read Guess=Read IOp(5/1
 5=2)
 ----------------------------------------------------------------------

 --
 Cr
 --
 Symbolic Z-matrix:
 Charge =  0 Multiplicity = 7

                         Standard orientation:
 ---------------------------------------------------------------------
 Center     Atomic      Atomic             Coordinates (Angstroms)
 Number     Number       Type             X           Y           Z
 ---------------------------------------------------------------------
      1         24           0        0.000000    0.000000    0.000000
 ---------------------------------------------------------------------

 SCF Done:  E(ROHF) =  -86.2208232613     A.U. after   23 cycles
 E2 =    -0.5503732573D+00 EUMP2 =    -0.86771196518539D+02
 CCSD(T)
 CCSD(T)= -0.86781938766D+02

 The electronic state is 7-A1G.
 Alpha  occ. eigenvalues --   -3.57863  -2.32583  -2.32583  -2.32583  -0.36846
 Alpha  occ. eigenvalues --   -0.36846  -0.36846  -0.36846  -0.36846  -0.22640
 Alpha virt. eigenvalues --    0.01714   0.01714   0.01714   0.02415   0.05525
 Alpha virt. eigenvalues --    0.05525   0.05525   0.05525   0.05525   0.05928
 Alpha virt. eigenvalues --    0.05928   0.05928   0.12714   0.17963   0.17963

 Mulliken charges and spin densities:
               1          2
     1  Cr  -0.000000   6.000000
 Sum of Mulliken charges =  -0.00000   6.00000

 Dipole moment (field-independent basis, Debye):
    X=              0.0000    Y=              0.0000    Z=              0.0000  Tot=              0.0000
 Quadrupole moment (field-independent basis, Debye-Ang):
   XX=            -16.4236   YY=            -16.4236   ZZ=            -16.4236
   XY=              0.0000   XZ=             -0.0000   YZ=             -0.0000

 1\1\GINC-C455-083\SP\ROCCSD(T)-Full\Gen\Cr1(7)\AANNABE\01-Apr-2018\0\\
 #P ROCCSD(T)=(maxcyc=150, Full)/Gen 5d 7f SCF=(maxcycles=300, NoVarAcc
 , VShift=200) MaxDisk=100GB Pop=Regular Pseudo=Read Guess=Read IOp(5/1
 5=2)\\Cr\\0,7\Cr,0,0.,0.,0.\\Version=ES64L-G16RevA.03\State=7-A1G\HF=-
 86.2208233\MP2=-86.7711965\MP3=-86.7628155\PUHF=-86.2208233\PMP2-0=-86
 .7711965\MP4SDQ=-86.7659476\CCSD=-86.7650145\CCSD(T)=-86.7819388\RMSD=
 5.235e-09\PG=OH [O(Cr1)]\\@

 Normal termination of Gaussian 16 at Sun Apr  1 13:12:54 2018.
