 Gaussian 16, Revision A.03,
 Gaussian 16:  ES64L-G16RevA.03 25-Dec-2016

 ----------------------------------------------------------------------
 #P ROCCSD(T)=(MaxCyc=150, Full)/Gen SCF=(maxcycle=400) Pseudo=Read Int
 egral(NoXCTest) Pop=Regular MaxDisk=500GB Guess=Read IOp(5/15=2)
 ----------------------------------------------------------------------

 ---
 CuH
 ---
 Symbolic Z-matrix:
 Charge =  0 Multiplicity = 1

                         Standard orientation:
 ---------------------------------------------------------------------
 Center     Atomic      Atomic             Coordinates (Angstroms)
 Number     Number       Type             X           Y           Z
 ---------------------------------------------------------------------
      1         29           0        0.000000    0.000000    0.040000
      2          1           0        0.000000    0.000000   -1.160000
 ---------------------------------------------------------------------

 SCF Done:  E(ROHF) =  -196.493588806     A.U. after   13 cycles
 E2 =    -0.1119341247D+01 EUMP2 =    -0.19761293005327D+03
 CCSD(T)
 CCSD(T)= -0.19752541614D+03

 The electronic state is 1-SG.
 Alpha  occ. eigenvalues --   -5.27238  -3.39754  -3.38287  -3.38287  -0.56021
 Alpha  occ. eigenvalues --   -0.52719  -0.52719  -0.51437  -0.51437  -0.33502
 Alpha virt. eigenvalues --    0.00661   0.02964   0.02964   0.03326   0.05986
 Alpha virt. eigenvalues --    0.10082   0.10278   0.10278   0.17269   0.19276
 Alpha virt. eigenvalues --    0.19276   0.20579   0.20579   0.22171   0.25992

 Mulliken charges and spin densities:
               1          2
     1  Cu   0.318215   0.000000
     2  H   -0.318215   0.000000
 Sum of Mulliken charges =  -0.00000   0.00000

 Dipole moment (field-independent basis, Debye):
    X=              0.0000    Y=              0.0000    Z=              3.3724  Tot=              3.3724
 Quadrupole moment (field-independent basis, Debye-Ang):
   XX=            -13.9737   YY=            -13.9737   ZZ=            -14.6308
   XY=              0.0000   XZ=              0.0000   YZ=              0.0000

 P ROCCSD(T)=(MaxCyc=150, Full)/Gen SCF=(maxcycle=400) Pseudo=Read Inte
 2-0=-197.6129301\MP4SDQ=-197.5670596\CCSD=-197.4866555\CCSD(T)=-197.52
 Normal termination of Gaussian 16 at Wed Apr  4 22:59:52 2018.
