 Gaussian 16, Revision A.03,
 Gaussian 16:  ES64L-G16RevA.03 25-Dec-2016

 ----------------------------------------------------------------------
 #P ROCCSD(T)=(MaxCyc=150, Full)/Gen SCF=(maxcycle=400) Pseudo=Read Int
 egral(NoXCTest) Pop=Regular MaxDisk=500GB Guess=Read IOp(5/15=2)
 ----------------------------------------------------------------------

 ---
 CuH
 ---
 Symbolic Z-matrix:
 Charge =  0 Multiplicity = 1

                         Standard orientation:
 ---------------------------------------------------------------------
 Center     Atomic      Atomic             Coordinates (Angstroms)
 Number     Number       Type             X           Y           Z
 ---------------------------------------------------------------------
      1         29           0        0.000000    0.000000    0.040000
      2          1           0        0.000000    0.000000   -1.160000
 ---------------------------------------------------------------------

 SCF Done:  E(ROHF) =  -196.496426462     A.U. after   10 cycles
 E2 =    -0.1171274144D+01 EUMP2 =    -0.19766770060557D+03
 CCSD(T)
 CCSD(T)= -0.19757862121D+03

 The electronic state is 1-SG.
 Alpha  occ. eigenvalues --   -5.27222  -3.39729  -3.38266  -3.38266  -0.56020
 Alpha  occ. eigenvalues --   -0.52722  -0.52722  -0.51444  -0.51444  -0.33505
 Alpha virt. eigenvalues --    0.00627   0.02679   0.02679   0.03015   0.05560
 Alpha virt. eigenvalues --    0.08954   0.08954   0.09137   0.13370   0.13370
 Alpha virt. eigenvalues --    0.13426   0.14038   0.14038   0.20284   0.22810

 Mulliken charges and spin densities:
               1          2
     1  Cu   0.302461   0.000000
     2  H   -0.302461   0.000000
 Sum of Mulliken charges =  -0.00000   0.00000

 Dipole moment (field-independent basis, Debye):
    X=              0.0000    Y=              0.0000    Z=              3.3635  Tot=              3.3635
 Quadrupole moment (field-independent basis, Debye-Ang):
   XX=            -13.9634   YY=            -13.9634   ZZ=            -14.6442
   XY=              0.0000   XZ=              0.0000   YZ=              0.0000

 P ROCCSD(T)=(MaxCyc=150, Full)/Gen SCF=(maxcycle=400) Pseudo=Read Inte
 2-0=-197.6677006\MP4SDQ=-197.6173054\CCSD=-197.5378198\CCSD(T)=-197.57
 Normal termination of Gaussian 16 at Wed Apr  4 23:52:21 2018.
