 Gaussian 16, Revision A.03,
 Gaussian 16:  ES64L-G16RevA.03 25-Dec-2016

 ----------------------------------------------------------------------
 #P ROCCSD(T)=(MaxCyc=150, Full)/Gen SCF=(maxcycle=400) Pseudo=Read Int
 egral(NoXCTest) Pop=Regular MaxDisk=500GB Guess=Read IOp(5/15=2)
 ----------------------------------------------------------------------

 ---
 CuH
 ---
 Symbolic Z-matrix:
 Charge =  0 Multiplicity = 1

                         Standard orientation:
 ---------------------------------------------------------------------
 Center     Atomic      Atomic             Coordinates (Angstroms)
 Number     Number       Type             X           Y           Z
 ---------------------------------------------------------------------
      1         29           0        0.000000    0.000000    0.040000
      2          1           0        0.000000    0.000000   -1.160000
 ---------------------------------------------------------------------

 SCF Done:  E(ROHF) =  -196.496280898     A.U. after    8 cycles
 E2 =    -0.1196253195D+01 EUMP2 =    -0.19769253409239D+03
 CCSD(T)
 CCSD(T)= -0.19760117656D+03

 The electronic state is 1-SG.
 Alpha  occ. eigenvalues --   -5.27228  -3.39733  -3.38271  -3.38271  -0.56019
 Alpha  occ. eigenvalues --   -0.52725  -0.52725  -0.51445  -0.51445  -0.33506
 Alpha virt. eigenvalues --    0.00521   0.02590   0.02590   0.02746   0.04707
 Alpha virt. eigenvalues --    0.07873   0.08588   0.08588   0.11933   0.11933
 Alpha virt. eigenvalues --    0.12010   0.12604   0.12604   0.15132   0.18766

 Mulliken charges and spin densities:
               1          2
     1  Cu   0.305157   0.000000
     2  H   -0.305157   0.000000
 Sum of Mulliken charges =  -0.00000   0.00000

 Dipole moment (field-independent basis, Debye):
    X=              0.0000    Y=              0.0000    Z=              3.3619  Tot=              3.3619
 Quadrupole moment (field-independent basis, Debye-Ang):
   XX=            -13.9621   YY=            -13.9621   ZZ=            -14.6461
   XY=              0.0000   XZ=              0.0000   YZ=              0.0000

 P ROCCSD(T)=(MaxCyc=150, Full)/Gen SCF=(maxcycle=400) Pseudo=Read Inte
 2-0=-197.6925341\MP4SDQ=-197.6385502\CCSD=-197.5596168\CCSD(T)=-197.60
 Normal termination of Gaussian 16 at Thu Apr  5 02:38:21 2018.
