 Gaussian 16, Revision A.03,
 Gaussian 16:  ES64L-G16RevA.03 25-Dec-2016

 ----------------------------------------------------------------------
 #P ROCCSD(T)=(maxcyc=150, Full, SaveAmplitudes, ReadAmplitudes)/Gen 5d
  7f SCF=(maxcycles=300) Integral(NoXCTest) MaxDisk=500GB Pop=Regular P
 seudo=Read Guess=Read IOp(5/15=2)
 ----------------------------------------------------------------------

 ---
 TiO
 ---
 Symbolic Z-matrix:
 Charge =  0 Multiplicity = 3

                         Standard orientation:
 ---------------------------------------------------------------------
 Center     Atomic      Atomic             Coordinates (Angstroms)
 Number     Number       Type             X           Y           Z
 ---------------------------------------------------------------------
      1         22           0        0.000000    0.000000    0.373333
      2          8           0        0.000000    0.000000   -1.026667
 ---------------------------------------------------------------------

 SCF Done:  E(ROHF) =  -73.3531989875     A.U. after   23 cycles
 E2 =    -0.7383561277D+00 EUMP2 =    -0.74091555115225D+02
 CCSD(T)
 CCSD(T)= -0.74116827520D+02

 Unable to determine electronic state:  an orbital has unidentified symmetry.
 Alpha  occ. eigenvalues --   -2.96802  -1.91956  -1.84920  -1.84920  -1.16430
 Alpha  occ. eigenvalues --   -0.53585  -0.53585  -0.50429  -0.39114  -0.23304
 Alpha virt. eigenvalues --    0.01008   0.01008   0.02197   0.02532   0.04637
 Alpha virt. eigenvalues --    0.04637   0.04997   0.05112   0.05283   0.05819
 Alpha virt. eigenvalues --    0.05819   0.08107   0.11532   0.12916   0.14385

 Mulliken charges and spin densities:
               1          2
     1  Ti   0.788920   2.023935
     2  O   -0.788920  -0.023935
 Sum of Mulliken charges =  -0.00000   2.00000

 Dipole moment (field-independent basis, Debye):
    X=              0.0000    Y=              0.0000    Z=              1.9232  Tot=              1.9232
 Quadrupole moment (field-independent basis, Debye-Ang):
   XX=            -21.6946   YY=            -21.6946   ZZ=            -27.7199
   XY=              0.0000   XZ=              0.0000   YZ=              0.0000

 \\#P ROCCSD(T)=(maxcyc=150, Full, SaveAmplitudes, ReadAmplitudes)/Gen
 790944\CCSD(T)=-74.1168275\RMSD=3.874e-09\PG=C*V [C*(O1Ti1)]\\@
 Normal termination of Gaussian 16 at Sat Mar 10 18:19:15 2018.
