 Gaussian 16, Revision A.03,
 Gaussian 16:  ES64L-G16RevA.03 25-Dec-2016

 ----------------------------------------------------------------------
 #P ROCCSD(T)=(maxcyc=150, Full, SaveAmplitudes, ReadAmplitudes)/Gen 5d
  7f SCF=(maxcycles=300, VShift=400) Integral(NoXCTest) MaxDisk=500GB P
 op=Full Pseudo=Read Guess=Read
 ----------------------------------------------------------------------

 ---
 MnH
 ---
 Symbolic Z-matrix:
 Charge =  0 Multiplicity = 7

                         Standard orientation:
 ---------------------------------------------------------------------
 Center     Atomic      Atomic             Coordinates (Angstroms)
 Number     Number       Type             X           Y           Z
 ---------------------------------------------------------------------
      1         25           0        0.000000    0.000000    0.073077
      2          1           0        0.000000    0.000000   -1.826923
 ---------------------------------------------------------------------

 SCF Done:  E(ROHF) =  -103.794076030     A.U. after   29 cycles
 E2 =    -0.5974169840D+00 EUMP2 =    -0.10439149301367D+03
 CCSD(T)
 CCSD(T)= -0.10441387673D+03

 The electronic state is 7-SG.
 Alpha  occ. eigenvalues --   -4.15549  -2.77816  -2.77816  -2.77560  -0.65461
 Alpha  occ. eigenvalues --   -0.65461  -0.64824  -0.64766  -0.64766  -0.39446
 Alpha  occ. eigenvalues --   -0.26738
 Alpha virt. eigenvalues --    0.01051   0.01051   0.02170   0.02888   0.04935
 Alpha virt. eigenvalues --    0.04935   0.05604   0.05773   0.05773   0.06197
 Alpha virt. eigenvalues --    0.06197   0.09441   0.12592   0.13820   0.18044

 Mulliken charges and spin densities:
               1          2
     1  Mn   0.374284   5.952743
     2  H   -0.374284   0.047257
 Sum of Mulliken charges =  -0.00000   6.00000

 Dipole moment (field-independent basis, Debye):
    X=              0.0000    Y=              0.0000    Z=              2.0410  Tot=              2.0410
 Quadrupole moment (field-independent basis, Debye-Ang):
   XX=            -16.3665   YY=            -16.3665   ZZ=            -27.4247
   XY=              0.0000   XZ=              0.0000   YZ=              0.0000

 \\#P ROCCSD(T)=(maxcyc=150, Full, SaveAmplitudes, ReadAmplitudes)/Gen
 UHF=-103.794076\PMP2-0=-104.391493\CCSD=-104.397378\CCSD(T)=-104.41387
 Normal termination of Gaussian 16 at Thu Apr 19 09:50:04 2018.
