 Gaussian 16, Revision A.03,
 Gaussian 16:  ES64L-G16RevA.03 25-Dec-2016

 ----------------------------------------------------------------------
 #P ROCCSD(T)=(maxcyc=150, Full)/Gen 5d 7f SCF=(maxcycles=300, NoVarAcc
 , VShift=300) Integral(NoXCTest, DKHSO) MaxDisk=100GB Pop=Regular Gues
 s=Permute IOp(5/15=2)
 ----------------------------------------------------------------------

 --
 Mn
 --
 Symbolic Z-matrix:
 Charge =  0 Multiplicity = 6

                         Standard orientation:
 ---------------------------------------------------------------------
 Center     Atomic      Atomic             Coordinates (Angstroms)
 Number     Number       Type             X           Y           Z
 ---------------------------------------------------------------------
      1         25           0        0.000000    0.000000    0.000000
 ---------------------------------------------------------------------

 SCF Done:  E(ROHF) =  -1157.39129088     A.U. after   25 cycles
 E2 =    -0.9991180937D+00 EUMP2 =    -0.11583904089727D+04
 CCSD(T)
 CCSD(T)= -0.11583973369D+04

 The electronic state is 6-A1G.
 Alpha  occ. eigenvalues -- -242.48891 -29.59057 -24.94473 -24.94473 -24.94473
 Alpha  occ. eigenvalues --   -4.08022  -2.73254  -2.73254  -2.73254  -0.62578
 Alpha  occ. eigenvalues --   -0.62578  -0.62578  -0.62578  -0.62578  -0.26781
 Alpha virt. eigenvalues --    0.01750   0.01750   0.01750   0.02544   0.05858
 Alpha virt. eigenvalues --    0.05858   0.05858   0.06096   0.06096   0.06096
 Alpha virt. eigenvalues --    0.06096   0.06096   0.13398   0.19364   0.19364

 Mulliken charges and spin densities:
               1          2
     1  Mn  -0.000000   5.000000
 Sum of Mulliken charges =  -0.00000   5.00000

 Dipole moment (field-independent basis, Debye):
    X=              0.0000    Y=              0.0000    Z=              0.0000  Tot=              0.0000
 Quadrupole moment (field-independent basis, Debye-Ang):
   XX=            -19.1017   YY=            -19.1017   ZZ=            -19.1017
   XY=              0.0000   XZ=             -0.0000   YZ=             -0.0000

 1\1\GINC-C506-011\SP\ROCCSD(T)-Full\Gen\Mn1(6)\AANNABE\12-Mar-2018\2\\
 #P ROCCSD(T)=(maxcyc=150, Full)/Gen 5d 7f SCF=(maxcycles=300, NoVarAcc
 , VShift=300) Integral(NoXCTest, DKHSO) MaxDisk=100GB Pop=Regular Gues
 s=Permute IOp(5/15=2)\\Mn\\0,6\Mn,0,0.,0.,0.\\1,2,3,4,5,6,7,8,9,15,10,
 11,12,13,14\\Version=ES64L-G16RevA.03\State=6-A1G\HF=-1157.3912909\MP2
 =-1158.390409\MP3=-1158.3734208\PUHF=-1157.3912909\PMP2-0=-1158.390409
 \MP4SDQ=-1158.378539\CCSD=-1158.3779627\CCSD(T)=-1158.3973369\RMSD=8.7
 86e-09\PG=OH [O(Mn1)]\\@

 Normal termination of Gaussian 16 at Mon Mar 12 13:04:52 2018.
