 Gaussian 16, Revision A.03,
 Gaussian 16:  ES64L-G16RevA.03 25-Dec-2016

 ----------------------------------------------------------------------
 #P ROCCSD(T)=(maxcyc=150, Full, SaveAmplitudes, ReadAmplitudes)/Gen 5d
  7f SCF=(maxcycles=300) Integral(NoXCTest) MaxDisk=500GB Pop=Regular P
 seudo=Read Guess=Read IOp(5/15=2)
 ----------------------------------------------------------------------

 ---
 CrO
 ---
 Symbolic Z-matrix:
 Charge =  0 Multiplicity = 5

                         Standard orientation:
 ---------------------------------------------------------------------
 Center     Atomic      Atomic             Coordinates (Angstroms)
 Number     Number       Type             X           Y           Z
 ---------------------------------------------------------------------
      1         24           0        0.000000    0.000000    0.325000
      2          8           0        0.000000    0.000000   -0.975000
 ---------------------------------------------------------------------

 SCF Done:  E(ROHF) =  -101.704631918     A.U. after   29 cycles
 E2 =    -0.8785685986D+00 EUMP2 =    -0.10258320051622D+03
 CCSD(T)
 CCSD(T)= -0.10259567659D+03

 Unable to determine electronic state:  an orbital has unidentified symmetry.
 Alpha  occ. eigenvalues --   -3.72204  -2.48077  -2.46858  -2.43868  -1.25620
 Alpha  occ. eigenvalues --   -0.69071  -0.60117  -0.59782  -0.51429  -0.51064
 Alpha  occ. eigenvalues --   -0.35394  -0.27094
 Alpha virt. eigenvalues --    0.01333   0.02331   0.02462   0.02869   0.05239
 Alpha virt. eigenvalues --    0.06578   0.07308   0.07736   0.07740   0.07885
 Alpha virt. eigenvalues --    0.08729   0.09838   0.12249   0.17146   0.19304

 Mulliken charges and spin densities:
               1          2
     1  Cr   0.902561   3.767801
     2  O   -0.902561   0.232199
 Sum of Mulliken charges =  -0.00000   4.00000

 Dipole moment (field-independent basis, Debye):
    X=              0.0000    Y=              0.0000    Z=              1.7230  Tot=              1.7230
 Quadrupole moment (field-independent basis, Debye-Ang):
   XX=            -21.5203   YY=            -19.8177   ZZ=            -23.6579
   XY=              0.0000   XZ=              0.0000   YZ=              0.0000

 \\#P ROCCSD(T)=(maxcyc=150, Full, SaveAmplitudes, ReadAmplitudes)/Gen
 SD=-102.5541314\CCSD(T)=-102.5956766\RMSD=8.830e-09\PG=C*V [C*(O1Cr1)]
 Normal termination of Gaussian 16 at Sat Mar 10 04:31:53 2018.
