 Gaussian 16, Revision A.03,
 Gaussian 16:  ES64L-G16RevA.03 25-Dec-2016

 ----------------------------------------------------------------------
 #P ROCCSD(T)=(maxcyc=150, Full, SaveAmplitudes, ReadAmplitudes)/Gen 5d
  7f SCF=(maxcycles=300) Integral(NoXCTest) MaxDisk=500GB Pop=Regular P
 seudo=Read Guess=Read
 ----------------------------------------------------------------------

 ---
 TiO
 ---
 Symbolic Z-matrix:
 Charge =  0 Multiplicity = 3

                         Standard orientation:
 ---------------------------------------------------------------------
 Center     Atomic      Atomic             Coordinates (Angstroms)
 Number     Number       Type             X           Y           Z
 ---------------------------------------------------------------------
      1         22           0        0.000000    0.000000    0.506667
      2          8           0        0.000000    0.000000   -1.393333
 ---------------------------------------------------------------------

 SCF Done:  E(ROHF) =  -73.3571776535     A.U. after   21 cycles
 E2 =    -0.7875084201D+00 EUMP2 =    -0.74144686073634D+02
 CCSD(T)
 CCSD(T)= -0.74179851721D+02

 Unable to determine electronic state:  an orbital has unidentified symmetry.
 Alpha  occ. eigenvalues --   -3.08649  -1.97931  -1.97931  -1.93315  -1.12307
 Alpha  occ. eigenvalues --   -0.52718  -0.41373  -0.37378  -0.37378  -0.29779
 Alpha virt. eigenvalues --   -0.00954  -0.00954  -0.00001   0.01831   0.02859
 Alpha virt. eigenvalues --    0.02859   0.03180   0.03504   0.03673   0.04398
 Alpha virt. eigenvalues --    0.04398   0.04776   0.06473   0.09739   0.09844

 Mulliken charges and spin densities:
               1          2
     1  Ti   1.008295   1.979343
     2  O   -1.008295   0.020657
 Sum of Mulliken charges =  -0.00000   2.00000

 Dipole moment (field-independent basis, Debye):
    X=              0.0000    Y=              0.0000    Z=              7.0359  Tot=              7.0359
 Quadrupole moment (field-independent basis, Debye-Ang):
   XX=            -21.7166   YY=            -21.7166   ZZ=            -30.6641
   XY=              0.0000   XZ=              0.0000   YZ=              0.0000

 \\#P ROCCSD(T)=(maxcyc=150, Full, SaveAmplitudes, ReadAmplitudes)/Gen
 -0=-74.1446861\CCSD=-74.1208183\CCSD(T)=-74.1798517\RMSD=1.207e-09\PG=
 Normal termination of Gaussian 16 at Sat Mar 10 03:48:58 2018.
