 Gaussian 16, Revision A.03,
 Gaussian 16:  ES64L-G16RevA.03 25-Dec-2016

 ----------------------------------------------------------------------
 #P ROCCSD(T)=(MaxCyc=150, Full)/Gen SCF=(maxcycle=400, vshift=200) Pse
 udo=Read Integral(NoXCTest) Pop=Regular MaxDisk=500GB Guess=Read IOp(5
 /15=2)
 ----------------------------------------------------------------------

 ---
 ZnH
 ---
 Symbolic Z-matrix:
 Charge =  0 Multiplicity = 2

                         Standard orientation:
 ---------------------------------------------------------------------
 Center     Atomic      Atomic             Coordinates (Angstroms)
 Number     Number       Type             X           Y           Z
 ---------------------------------------------------------------------
      1         30           0        0.000000    0.000000    0.051613
      2          1           0        0.000000    0.000000   -1.548387
 ---------------------------------------------------------------------

 SCF Done:  E(ROHF) =  -226.152848939     A.U. after   18 cycles
 E2 =    -0.1107625061D+01 EUMP2 =    -0.22726047400076D+03
 CCSD(T)
 CCSD(T)= -0.22721210366D+03

 The electronic state is 2-SG.
 Alpha  occ. eigenvalues --   -5.88354  -4.00045  -4.00045  -3.99850  -0.79940
 Alpha  occ. eigenvalues --   -0.79940  -0.79853  -0.79435  -0.79435  -0.45647
 Alpha  occ. eigenvalues --   -0.27912
 Alpha virt. eigenvalues --    0.01873   0.01873   0.02355   0.03258   0.06251
 Alpha virt. eigenvalues --    0.06251   0.06805   0.11983   0.13491   0.15352
 Alpha virt. eigenvalues --    0.15352   0.15431   0.15431   0.18213   0.20904

 Mulliken charges and spin densities:
               1          2
     1  Zn   0.265741   0.922592
     2  H   -0.265741   0.077408
 Sum of Mulliken charges =  -0.00000   1.00000

 Dipole moment (field-independent basis, Debye):
    X=              0.0000    Y=              0.0000    Z=              0.7794  Tot=              0.7794
 Quadrupole moment (field-independent basis, Debye-Ang):
   XX=            -14.6131   YY=            -14.6131   ZZ=            -21.2044
   XY=              0.0000   XZ=              0.0000   YZ=              0.0000

 \\#P ROCCSD(T)=(MaxCyc=150, Full)/Gen SCF=(maxcycle=400, vshift=200) P
 Normal termination of Gaussian 16 at Sun Apr 29 00:33:03 2018.
