 Gaussian 16, Revision A.03,
 Gaussian 16:  ES64L-G16RevA.03 25-Dec-2016

 ----------------------------------------------------------------------
 #P ROCCSD(T)=(MaxCyc=150, Full)/Gen SCF=(maxcycle=400, vshift=200) Pse
 udo=Read Integral(NoXCTest) Pop=Regular MaxDisk=500GB Guess=Read IOp(5
 /15=2)
 ----------------------------------------------------------------------

 ---
 ZnH
 ---
 Symbolic Z-matrix:
 Charge =  0 Multiplicity = 2

                         Standard orientation:
 ---------------------------------------------------------------------
 Center     Atomic      Atomic             Coordinates (Angstroms)
 Number     Number       Type             X           Y           Z
 ---------------------------------------------------------------------
      1         30           0        0.000000    0.000000    0.051613
      2          1           0        0.000000    0.000000   -1.548387
 ---------------------------------------------------------------------

 SCF Done:  E(ROHF) =  -226.151757323     A.U. after    1 cycles
 E2 =    -0.1026178635D+01 EUMP2 =    -0.22717793595758D+03
 CCSD(T)
 CCSD(T)= -0.22713234494D+03

 The electronic state is 2-SG.
 Alpha  occ. eigenvalues --   -5.88361  -4.00059  -4.00059  -3.99860  -0.79945
 Alpha  occ. eigenvalues --   -0.79945  -0.79855  -0.79437  -0.79437  -0.45649
 Alpha  occ. eigenvalues --   -0.27908
 Alpha virt. eigenvalues --    0.02053   0.02053   0.02910   0.03907   0.07618
 Alpha virt. eigenvalues --    0.07618   0.08824   0.15874   0.18159   0.24139
 Alpha virt. eigenvalues --    0.24139   0.24969   0.24969   0.25380   0.29295

 Mulliken charges and spin densities:
               1          2
     1  Zn   0.329585   0.932779
     2  H   -0.329585   0.067221
 Sum of Mulliken charges =  -0.00000   1.00000

 Dipole moment (field-independent basis, Debye):
    X=              0.0000    Y=              0.0000    Z=              0.7768  Tot=              0.7768
 Quadrupole moment (field-independent basis, Debye-Ang):
   XX=            -14.6169   YY=            -14.6169   ZZ=            -21.2076
   XY=              0.0000   XZ=              0.0000   YZ=              0.0000

 \\#P ROCCSD(T)=(MaxCyc=150, Full)/Gen SCF=(maxcycle=400, vshift=200) P
 Normal termination of Gaussian 16 at Sat Apr 21 10:25:45 2018.
