 Gaussian 16, Revision A.03,
 Gaussian 16:  ES64L-G16RevA.03 25-Dec-2016

 ----------------------------------------------------------------------
 #P ROCCSD(T)=(MaxCyc=150, Full)/Gen SCF=(maxcycle=400, vshift=200) Pse
 udo=Read Integral(NoXCTest) Pop=Regular MaxDisk=500GB Guess=Read IOp(5
 /15=2)
 ----------------------------------------------------------------------

 ---
 ZnH
 ---
 Symbolic Z-matrix:
 Charge =  0 Multiplicity = 2

                         Standard orientation:
 ---------------------------------------------------------------------
 Center     Atomic      Atomic             Coordinates (Angstroms)
 Number     Number       Type             X           Y           Z
 ---------------------------------------------------------------------
      1         30           0        0.000000    0.000000    0.051613
      2          1           0        0.000000    0.000000   -1.548387
 ---------------------------------------------------------------------

 SCF Done:  E(ROHF) =  -226.152742512     A.U. after   18 cycles
 E2 =    -0.1081118806D+01 EUMP2 =    -0.22723386131862D+03
 CCSD(T)
 CCSD(T)= -0.22718743929D+03

 The electronic state is 2-SG.
 Alpha  occ. eigenvalues --   -5.88354  -4.00046  -4.00046  -3.99851  -0.79941
 Alpha  occ. eigenvalues --   -0.79941  -0.79854  -0.79436  -0.79436  -0.45646
 Alpha  occ. eigenvalues --   -0.27911
 Alpha virt. eigenvalues --    0.01933   0.01933   0.02783   0.03538   0.06669
 Alpha virt. eigenvalues --    0.06669   0.07834   0.14175   0.16907   0.17931
 Alpha virt. eigenvalues --    0.17931   0.18091   0.18091   0.21103   0.23355

 Mulliken charges and spin densities:
               1          2
     1  Zn   0.303309   0.924379
     2  H   -0.303309   0.075621
 Sum of Mulliken charges =  -0.00000   1.00000

 Dipole moment (field-independent basis, Debye):
    X=              0.0000    Y=              0.0000    Z=              0.7791  Tot=              0.7791
 Quadrupole moment (field-independent basis, Debye-Ang):
   XX=            -14.6138   YY=            -14.6138   ZZ=            -21.2065
   XY=              0.0000   XZ=              0.0000   YZ=              0.0000

 \\#P ROCCSD(T)=(MaxCyc=150, Full)/Gen SCF=(maxcycle=400, vshift=200) P
 Normal termination of Gaussian 16 at Sat Apr 21 11:18:36 2018.
