 Gaussian 16, Revision A.03,
 Gaussian 16:  ES64L-G16RevA.03 25-Dec-2016

 ----------------------------------------------------------------------
 #P ROCCSD(T)=(maxcyc=150, Full)/Gen 5d 7f SCF=(maxcycles=300) Integral
 (NoXCTest, DKHSO) MaxDisk=500GB Pop=Regular IOp(5/15=2) Guess=Read
 ----------------------------------------------------------------------

 ---
 ScH
 ---
 Symbolic Z-matrix:
 Charge =  0 Multiplicity = 1

                         Standard orientation:
 ---------------------------------------------------------------------
 Center     Atomic      Atomic             Coordinates (Angstroms)
 Number     Number       Type             X           Y           Z
 ---------------------------------------------------------------------
      1         21           0        0.000000    0.000000    0.050000
      2          1           0        0.000000    0.000000   -1.050000
 ---------------------------------------------------------------------

 SCF Done:  E(ROHF) =  -763.646777963     A.U. after   13 cycles
 E2 =    -0.7680196259D+00 EUMP2 =    -0.76441479758876D+03
 CCSD(T)
 CCSD(T)= -0.76444617460D+03

 The electronic state is 1-SG.
 Alpha  occ. eigenvalues -- -166.81151 -19.24900 -15.67372 -15.67372 -15.66719
 Alpha  occ. eigenvalues --   -2.60172  -1.63984  -1.57127  -1.57127  -0.47308
 Alpha  occ. eigenvalues --   -0.21334
 Alpha virt. eigenvalues --    0.01389   0.01402   0.01402   0.02278   0.03461
 Alpha virt. eigenvalues --    0.03913   0.03913   0.03956   0.03956   0.04831
 Alpha virt. eigenvalues --    0.04997   0.04997   0.09428   0.10838   0.10838

 Mulliken charges and spin densities:
               1          2
     1  Sc   0.535504   0.000000
     2  H   -0.535504   0.000000
 Sum of Mulliken charges =  -0.00000   0.00000

 Dipole moment (field-independent basis, Debye):
    X=              0.0000    Y=              0.0000    Z=              0.9159  Tot=              0.9159
 Quadrupole moment (field-independent basis, Debye-Ang):
   XX=            -24.0869   YY=            -24.0869   ZZ=            -22.6272
   XY=              0.0000   XZ=              0.0000   YZ=              0.0000

 P ROCCSD(T)=(maxcyc=150, Full)/Gen 5d 7f SCF=(maxcycles=300) Integral(
 2-0=-764.4147976\MP4SDQ=-764.4287052\CCSD=-764.4283659\CCSD(T)=-764.44
 Normal termination of Gaussian 16 at Mon Feb 12 20:14:52 2018.
