 Gaussian 16, Revision A.03,
 Gaussian 16:  ES64L-G16RevA.03 25-Dec-2016

 ----------------------------------------------------------------------
 #P ROCCSD(T)=(maxcyc=100, Full)/Gen SCF=(maxcycle=400, symm) Pseudo=Re
 ad Integral(NoXCTest) Pop=Regular MaxDisk=500GB Guess=Permute IOp(5/15
 =2)
 ----------------------------------------------------------------------

 ---
 FeH
 ---
 Symbolic Z-matrix:
 Charge =  0 Multiplicity = 4

                         Standard orientation:
 ---------------------------------------------------------------------
 Center     Atomic      Atomic             Coordinates (Angstroms)
 Number     Number       Type             X           Y           Z
 ---------------------------------------------------------------------
      1         26           0        0.000000    0.000000    0.048148
      2          1           0        0.000000    0.000000   -1.251852
 ---------------------------------------------------------------------

 SCF Done:  E(ROHF) =  -123.563410684     A.U. after   30 cycles
 E2 =    -0.8217579453D+00 EUMP2 =    -0.12438516862972D+03
 CCSD(T)
 CCSD(T)= -0.12438405945D+03

 Unable to determine electronic state:  partially filled degenerate orbitals.
 Alpha  occ. eigenvalues --   -4.21464  -2.80240  -2.78566  -2.78566  -0.53738
 Alpha  occ. eigenvalues --   -0.53738  -0.51700  -0.51362  -0.46650  -0.30886
 Alpha virt. eigenvalues --    0.00175   0.02242   0.02242   0.02684   0.04368
 Alpha virt. eigenvalues --    0.06248   0.06812   0.06812   0.06849   0.06861
 Alpha virt. eigenvalues --    0.07501   0.07501   0.09383   0.17017   0.17978

 Mulliken charges and spin densities:
               1          2
     1  Fe   0.330613   2.993179
     2  H   -0.330613   0.006821
 Sum of Mulliken charges =  -0.00000   3.00000

 Dipole moment (field-independent basis, Debye):
    X=              0.0000    Y=              0.0000    Z=              3.3943  Tot=              3.3943
 Quadrupole moment (field-independent basis, Debye-Ang):
   XX=            -16.3651   YY=            -16.3651   ZZ=            -16.0050
   XY=              0.0000   XZ=              0.0000   YZ=              0.0000

 \\#P ROCCSD(T)=(maxcyc=100, Full)/Gen SCF=(maxcycle=400, symm) Pseudo=
 52917\CCSD(T)=-124.3840594\RMSD=1.880e-09\PG=C*V [C*(H1Fe1)]\\@
 Normal termination of Gaussian 16 at Mon Feb 12 21:00:11 2018.
