 Gaussian 16, Revision A.03,
 Gaussian 16:  ES64L-G16RevA.03 25-Dec-2016

 ----------------------------------------------------------------------
 #P ROCCSD(T)=(maxcyc=100, Full)/Gen SCF=(maxcycle=400, symm) Pseudo=Re
 ad Integral(NoXCTest) Pop=Regular MaxDisk=500GB Guess=Permute IOp(5/15
 =2)
 ----------------------------------------------------------------------

 ---
 FeH
 ---
 Symbolic Z-matrix:
 Charge =  0 Multiplicity = 4

                         Standard orientation:
 ---------------------------------------------------------------------
 Center     Atomic      Atomic             Coordinates (Angstroms)
 Number     Number       Type             X           Y           Z
 ---------------------------------------------------------------------
      1         26           0        0.000000    0.000000    0.048148
      2          1           0        0.000000    0.000000   -1.251852
 ---------------------------------------------------------------------

 SCF Done:  E(ROHF) =  -123.562270656     A.U. after   29 cycles
 E2 =    -0.7863456755D+00 EUMP2 =    -0.12434861633197D+03
 CCSD(T)
 CCSD(T)= -0.12434957085D+03

 Unable to determine electronic state:  an orbital has unidentified symmetry.
 Alpha  occ. eigenvalues --   -4.21518  -2.80267  -2.78591  -2.78591  -0.53739
 Alpha  occ. eigenvalues --   -0.53739  -0.51698  -0.51357  -0.46648  -0.30885
 Alpha virt. eigenvalues --    0.00203   0.02454   0.02454   0.02942   0.04556
 Alpha virt. eigenvalues --    0.08249   0.08249   0.09590   0.10292   0.10292
 Alpha virt. eigenvalues --    0.10323   0.10359   0.10538   0.16648   0.24770

 Mulliken charges and spin densities:
               1          2
     1  Fe   0.368937   2.992400
     2  H   -0.368937   0.007600
 Sum of Mulliken charges =  -0.00000   3.00000

 Dipole moment (field-independent basis, Debye):
    X=              0.0000    Y=              0.0000    Z=              3.3960  Tot=              3.3960
 Quadrupole moment (field-independent basis, Debye-Ang):
   XX=            -16.3770   YY=            -16.3770   ZZ=            -16.0009
   XY=              0.0000   XZ=              0.0000   YZ=              0.0000

 \\#P ROCCSD(T)=(maxcyc=100, Full)/Gen SCF=(maxcycle=400, symm) Pseudo=
 3198611\CCSD(T)=-124.3495709\RMSD=3.701e-09\PG=C*V [C*(H1Fe1)]\\@
 Normal termination of Gaussian 16 at Mon Feb 12 20:23:37 2018.
