 Gaussian 16, Revision A.03,
 Gaussian 16:  ES64L-G16RevA.03 25-Dec-2016

 ----------------------------------------------------------------------
 #P ROCCSD(T)=(maxcyc=100, Full)/Gen SCF=(maxcycle=400, symm) Pseudo=Re
 ad Integral(NoXCTest) Pop=Regular MaxDisk=500GB Guess=Permute IOp(5/15
 =2)
 ----------------------------------------------------------------------

 ---
 FeH
 ---
 Symbolic Z-matrix:
 Charge =  0 Multiplicity = 4

                         Standard orientation:
 ---------------------------------------------------------------------
 Center     Atomic      Atomic             Coordinates (Angstroms)
 Number     Number       Type             X           Y           Z
 ---------------------------------------------------------------------
      1         26           0        0.000000    0.000000    0.048148
      2          1           0        0.000000    0.000000   -1.251852
 ---------------------------------------------------------------------

 SCF Done:  E(ROHF) =  -123.563960120     A.U. after   27 cycles
 E2 =    -0.8359339578D+00 EUMP2 =    -0.12439989407778D+03
 CCSD(T)
 CCSD(T)= -0.12439674112D+03

 Unable to determine electronic state:  an orbital has unidentified symmetry.
 Alpha  occ. eigenvalues --   -4.21481  -2.80235  -2.78561  -2.78561  -0.53735
 Alpha  occ. eigenvalues --   -0.53735  -0.51696  -0.51364  -0.46652  -0.30887
 Alpha virt. eigenvalues --    0.00130   0.02179   0.02179   0.02400   0.03754
 Alpha virt. eigenvalues --    0.05873   0.06273   0.06282   0.06282   0.06283
 Alpha virt. eigenvalues --    0.07169   0.07169   0.08232   0.12933   0.17295

 Mulliken charges and spin densities:
               1          2
     1  Fe   0.301651   2.992050
     2  H   -0.301651   0.007950
 Sum of Mulliken charges =  -0.00000   3.00000

 Dipole moment (field-independent basis, Debye):
    X=              0.0000    Y=              0.0000    Z=              3.3940  Tot=              3.3940
 Quadrupole moment (field-independent basis, Debye-Ang):
   XX=            -16.3633   YY=            -16.3633   ZZ=            -16.0059
   XY=              0.0000   XZ=              0.0000   YZ=              0.0000

 \\#P ROCCSD(T)=(maxcyc=100, Full)/Gen SCF=(maxcycle=400, symm) Pseudo=
 651056\CCSD(T)=-124.3967411\RMSD=4.039e-09\PG=C*V [C*(H1Fe1)]\\@
 Normal termination of Gaussian 16 at Mon Feb 12 22:37:35 2018.
