 Gaussian 16, Revision A.03,
 Gaussian 16:  ES64L-G16RevA.03 25-Dec-2016

 ----------------------------------------------------------------------
 #P ROCCSD(T)=(maxcyc=150, Full, SaveAmplitudes, ReadAmplitudes)/Gen 5d
  7f SCF=(maxcycles=300) Integral(NoXCTest) MaxDisk=500GB Pop=Regular P
 seudo=Read Guess=Read IOp(5/15=2)
 ----------------------------------------------------------------------

 ---
 TiO
 ---
 Symbolic Z-matrix:
 Charge =  0 Multiplicity = 3

                         Standard orientation:
 ---------------------------------------------------------------------
 Center     Atomic      Atomic             Coordinates (Angstroms)
 Number     Number       Type             X           Y           Z
 ---------------------------------------------------------------------
      1         22           0        0.000000    0.000000    0.506667
      2          8           0        0.000000    0.000000   -1.393333
 ---------------------------------------------------------------------

 SCF Done:  E(ROHF) =  -73.4842012749     A.U. after   23 cycles
 E2 =    -0.7683266331D+00 EUMP2 =    -0.74252527908029D+02
 CCSD(T)
 CCSD(T)= -0.74290053853D+02

 Unable to determine electronic state:  an orbital has unidentified symmetry.
 Alpha  occ. eigenvalues --   -3.11435  -1.96905  -1.96905  -1.92208  -1.10645
 Alpha  occ. eigenvalues --   -0.52198  -0.41461  -0.37340  -0.37340  -0.29855
 Alpha virt. eigenvalues --   -0.01012  -0.01012   0.00100   0.01927   0.03301
 Alpha virt. eigenvalues --    0.03301   0.03744   0.04454   0.05023   0.05947
 Alpha virt. eigenvalues --    0.05947   0.06105   0.07505   0.10455   0.10455

 Mulliken charges and spin densities:
               1          2
     1  Ti   0.980152   1.985648
     2  O   -0.980152   0.014352
 Sum of Mulliken charges =   0.00000   2.00000

 Dipole moment (field-independent basis, Debye):
    X=              0.0000    Y=              0.0000    Z=              6.9878  Tot=              6.9878
 Quadrupole moment (field-independent basis, Debye-Ang):
   XX=            -21.6640   YY=            -21.6640   ZZ=            -30.8696
   XY=              0.0000   XZ=              0.0000   YZ=              0.0000

 \\#P ROCCSD(T)=(maxcyc=150, Full, SaveAmplitudes, ReadAmplitudes)/Gen
 .2327131\CCSD(T)=-74.2900539\RMSD=5.780e-09\PG=C*V [C*(O1Ti1)]\\@
 Normal termination of Gaussian 16 at Tue Mar 13 01:11:00 2018.
