 Gaussian 16, Revision A.03,
 Gaussian 16:  ES64L-G16RevA.03 25-Dec-2016

 ----------------------------------------------------------------------
 #P ROCCSD(T)=(maxcyc=150, Window=(7,0), SaveAmplitudes, ReadAmplitudes
 )/Gen 5d 7f SCF=(maxcycles=300) Integral(NoXCTest, DKHSO) MaxDisk=500G
 B Pop=Regular Guess=Read IOp(5/15=2)
 ----------------------------------------------------------------------

 ---
 ScO
 ---
 Symbolic Z-matrix:
 Charge =  0 Multiplicity = 2

                         Standard orientation:
 ---------------------------------------------------------------------
 Center     Atomic      Atomic             Coordinates (Angstroms)
 Number     Number       Type             X           Y           Z
 ---------------------------------------------------------------------
      1         21           0        0.000000    0.000000    0.441379
      2          8           0        0.000000    0.000000   -1.158621
 ---------------------------------------------------------------------

 SCF Done:  E(ROHF) =  -838.272283475     A.U. after   15 cycles
 E2 =    -0.6547363138D+00 EUMP2 =    -0.83892701978887D+03
 CCSD(T)
 CCSD(T)= -0.83895254225D+03

 The electronic state is 2-SG.
 Alpha  occ. eigenvalues -- -166.84495 -20.49034 -19.29235 -15.71497 -15.71497
 Alpha  occ. eigenvalues --  -15.71371  -2.62286  -1.66184  -1.60364  -1.60364
 Alpha  occ. eigenvalues --   -1.11255  -0.44087  -0.44087  -0.43815  -0.23999
 Alpha virt. eigenvalues --    0.00315   0.00315   0.01697   0.02289   0.03649
 Alpha virt. eigenvalues --    0.03649   0.03755   0.03755   0.04201   0.04201
 Alpha virt. eigenvalues --    0.04264   0.06040   0.09051   0.09051   0.10739

 Mulliken charges and spin densities:
               1          2
     1  Sc   1.293711   0.975380
     2  O   -1.293711   0.024620
 Sum of Mulliken charges =  -0.00000   1.00000

 Dipole moment (field-independent basis, Debye):
    X=              0.0000    Y=              0.0000    Z=              3.8773  Tot=              3.8773
 Quadrupole moment (field-independent basis, Debye-Ang):
   XX=            -22.3634   YY=            -22.3634   ZZ=            -32.3261
   XY=              0.0000   XZ=              0.0000   YZ=              0.0000

 1\1\GINC-C483-113\SP\ROCCSD(T)-RW\Gen\O1Sc1(2)\AANNABE\20-Feb-2018\0\\
 #P ROCCSD(T)=(maxcyc=150, Window=(7,0), SaveAmplitudes, ReadAmplitudes
 )/Gen 5d 7f SCF=(maxcycles=300) Integral(NoXCTest, DKHSO) MaxDisk=500G
 B Pop=Regular Guess=Read IOp(5/15=2)\\ScO\\0,2\Sc,0,0.,0.,0.\O,0,0.,0.
 ,1.6\\Version=ES64L-G16RevA.03\State=2-SG\HF=-838.2722835\MP2=-838.927
 0198\MP3=-838.901097\PUHF=-838.2722835\PMP2-0=-838.9270198\MP4SDQ=-838
 .933072\CCSD=-838.9166042\CCSD(T)=-838.9525423\RMSD=5.388e-09\PG=C*V [
 C*(O1Sc1)]\\@

 Normal termination of Gaussian 16 at Tue Feb 20 20:28:20 2018.
