 Gaussian 16, Revision A.03,
 Gaussian 16:  ES64L-G16RevA.03 25-Dec-2016

 ----------------------------------------------------------------------
 #P ROCCSD(T)=(MaxCyc=150, Full)/Gen SCF=(maxcycle=400, vshift=200) Int
 egral(DKHSO, NoXCTest) Pop=Regular MaxDisk=500GB Guess=Read IOp(5/15=2
 )
 ----------------------------------------------------------------------

 ---
 CuH
 ---
 Symbolic Z-matrix:
 Charge =  0 Multiplicity = 1

                         Standard orientation:
 ---------------------------------------------------------------------
 Center     Atomic      Atomic             Coordinates (Angstroms)
 Number     Number       Type             X           Y           Z
 ---------------------------------------------------------------------
      1         29           0        0.000000    0.000000    0.056667
      2          1           0        0.000000    0.000000   -1.643333
 ---------------------------------------------------------------------

 SCF Done:  E(ROHF) =  -1653.70998785     A.U. after   16 cycles
 E2 =    -0.1506904159D+01 EUMP2 =    -0.16552168920084D+04
 CCSD(T)
 CCSD(T)= -0.16551169613D+04

 The electronic state is 1-SG.
 Alpha  occ. eigenvalues -- -332.50483 -41.67705 -35.81785 -35.81785 -35.81589
 Alpha  occ. eigenvalues --   -5.17206  -3.37899  -3.37767  -3.37767  -0.49694
 Alpha  occ. eigenvalues --   -0.49694  -0.49612  -0.49612  -0.49589  -0.33316
 Alpha virt. eigenvalues --   -0.00252   0.02879   0.02879   0.03749   0.04947
 Alpha virt. eigenvalues --    0.10001   0.10230   0.10230   0.17096   0.19734
 Alpha virt. eigenvalues --    0.19734   0.20137   0.20137   0.20486   0.25935

 Mulliken charges and spin densities:
               1          2
     1  Cu   0.389047  -0.000000
     2  H   -0.389047  -0.000000
 Sum of Mulliken charges =  -0.00000  -0.00000

 Dipole moment (field-independent basis, Debye):
    X=              0.0000    Y=              0.0000    Z=              4.3795  Tot=              4.3795
 Quadrupole moment (field-independent basis, Debye-Ang):
   XX=            -13.8676   YY=            -13.8676   ZZ=            -17.4253
   XY=              0.0000   XZ=              0.0000   YZ=              0.0000

 P ROCCSD(T)=(MaxCyc=150, Full)/Gen SCF=(maxcycle=400, vshift=200) Inte
 Normal termination of Gaussian 16 at Wed Apr  4 19:23:43 2018.
