 Gaussian 16, Revision A.03,
 Gaussian 16:  ES64L-G16RevA.03 25-Dec-2016

 ----------------------------------------------------------------------
 #P ROCCSD(T)=(MaxCyc=150, Window=(7,0))/Gen SCF=(maxcycle=400) Integra
 l(DKHSO, NoXCTest) Pop=Regular MaxDisk=500GB Guess=Read IOp(5/15=2)
 ----------------------------------------------------------------------

 ---
 CoO
 ---
 Symbolic Z-matrix:
 Charge =  0 Multiplicity = 4

                         Standard orientation:
 ---------------------------------------------------------------------
 Center     Atomic      Atomic             Coordinates (Angstroms)
 Number     Number       Type             X           Y           Z
 ---------------------------------------------------------------------
      1         27           0        0.000000    0.000000    0.320000
      2          8           0        0.000000    0.000000   -1.080000
 ---------------------------------------------------------------------

 SCF Done:  E(ROHF) =  -1466.63418984     A.U. after   25 cycles
 E2 =    -0.1106975407D+01 EUMP2 =    -0.14677411652488D+04
 CCSD(T)
 CCSD(T)= -0.14677312281D+04

 Unable to determine electronic state:  partially filled degenerate orbitals.
 Alpha  occ. eigenvalues -- -285.82663 -35.57175 -30.33593 -30.33593 -30.33588
 Alpha  occ. eigenvalues --  -20.53006  -4.80434  -3.25124  -3.22679  -3.22679
 Alpha  occ. eigenvalues --   -1.24741  -0.79992  -0.79992  -0.75241  -0.70204
 Alpha  occ. eigenvalues --   -0.67624  -0.43591  -0.43591  -0.35759
 Alpha virt. eigenvalues --   -0.02019   0.02627   0.02627   0.03306   0.03947
 Alpha virt. eigenvalues --    0.08672   0.08672   0.10307   0.11144   0.11170
 Alpha virt. eigenvalues --    0.11745   0.11745   0.14350   0.16573   0.26010

 Mulliken charges and spin densities:
               1          2
     1  Co   0.939959   2.789091
     2  O   -0.939959   0.210909
 Sum of Mulliken charges =  -0.00000   3.00000

 Dipole moment (field-independent basis, Debye):
    X=             -0.0000    Y=              0.0000    Z=              5.5326  Tot=              5.5326
 Quadrupole moment (field-independent basis, Debye-Ang):
   XX=            -19.5370   YY=            -19.5370   ZZ=            -20.4739
   XY=             -0.0000   XZ=             -0.0000   YZ=              0.0000

 1\1\GINC-C419-102\SP\ROCCSD(T)-RW\Gen\Co1O1(4)\GWANG18\31-Mar-2018\0\\
 #P ROCCSD(T)=(MaxCyc=150, Window=(7,0))/Gen SCF=(maxcycle=400) Integra
 l(DKHSO, NoXCTest) Pop=Regular MaxDisk=500GB Guess=Read IOp(5/15=2)\\C
 oO\\0,4\Co,0,0.,0.,0.\O,0,0.,0.,1.4\\Version=ES64L-G16RevA.03\HF=-1466
 .6341898\MP2=-1467.7411652\MP3=-1467.6116644\PUHF=-1466.6341898\PMP2-0
 =-1467.7411652\MP4SDQ=-1467.7044055\CCSD=-1467.6806952\CCSD(T)=-1467.7
 312281\RMSD=3.771e-09\PG=C*V [C*(O1Co1)]\\@

 Normal termination of Gaussian 16 at Sat Mar 31 14:43:26 2018.
