 Gaussian 16, Revision A.03,
 Gaussian 16:  ES64L-G16RevA.03 25-Dec-2016

 ----------------------------------------------------------------------
 #P ROCCSD(T)=(maxcyc=150, Full)/Gen 5d 7f SCF=(maxcycles=300, NoVarAcc
 , VShift=200) MaxDisk=100GB Pop=Regular Pseudo=Read Guess=Read
 ----------------------------------------------------------------------

 --
 Ti
 --
 Symbolic Z-matrix:
 Charge =  0 Multiplicity = 3

                         Standard orientation:
 ---------------------------------------------------------------------
 Center     Atomic      Atomic             Coordinates (Angstroms)
 Number     Number       Type             X           Y           Z
 ---------------------------------------------------------------------
      1         22           0        0.000000    0.000000    0.000000
 ---------------------------------------------------------------------

 SCF Done:  E(ROHF) =  -57.5810664524     A.U. after   16 cycles
 E2 =    -0.4299687348D+00 EUMP2 =    -0.58011035187233D+02
 CCSD(T)
 CCSD(T)= -0.58047008525D+02

 Unable to determine electronic state:  an orbital has unidentified symmetry.
 Alpha  occ. eigenvalues --   -2.99432  -1.89110  -1.89110  -1.89110  -0.44072
 Alpha  occ. eigenvalues --   -0.44072  -0.22955
 Alpha virt. eigenvalues --    0.01367   0.01367   0.01367   0.02240   0.03897
 Alpha virt. eigenvalues --    0.03897   0.03897   0.03944   0.03944   0.04802
 Alpha virt. eigenvalues --    0.04802   0.04802   0.10292   0.10292   0.10292

 Mulliken charges and spin densities:
               1          2
     1  Ti  -0.000000   2.000000
 Sum of Mulliken charges =  -0.00000   2.00000

 Dipole moment (field-independent basis, Debye):
    X=             -0.0000    Y=             -0.0000    Z=              0.0000  Tot=              0.0000
 Quadrupole moment (field-independent basis, Debye-Ang):
   XX=            -21.9975   YY=            -21.9975   ZZ=            -21.9975
   XY=             -0.0000   XZ=             -0.0000   YZ=             -0.0000

 1\1\GINC-C506-092\SP\ROCCSD(T)-Full\Gen\Ti1(3)\AANNABE\01-Apr-2018\0\\
 #P ROCCSD(T)=(maxcyc=150, Full)/Gen 5d 7f SCF=(maxcycles=300, NoVarAcc
 , VShift=200) MaxDisk=100GB Pop=Regular Pseudo=Read Guess=Read\\Ti\\0,
 3\Ti,0,0.,0.,0.\\Version=ES64L-G16RevA.03\HF=-57.5810665\MP2=-58.01103
 52\MP3=-58.0305536\PUHF=-57.5810665\PMP2-0=-58.0110352\MP4SDQ=-58.0304
 613\CCSD=-58.0308332\CCSD(T)=-58.0470085\RMSD=4.852e-09\PG=OH [O(Ti1)]
 \\@

 Normal termination of Gaussian 16 at Sun Apr  1 14:38:23 2018.
