 Gaussian 16, Revision A.03,
 Gaussian 16:  ES64L-G16RevA.03 25-Dec-2016

 ----------------------------------------------------------------------
 #P ROCCSD(T)=(MaxCyc=150, Full)/Gen SCF=(maxcycle=400) Pseudo=Read Int
 egral(NoXCTest) Pop=Regular MaxDisk=500GB
 ----------------------------------------------------------------------

 ---
 FeO
 ---
 Symbolic Z-matrix:
 Charge =  0 Multiplicity = 5

                         Standard orientation:
 ---------------------------------------------------------------------
 Center     Atomic      Atomic             Coordinates (Angstroms)
 Number     Number       Type             X           Y           Z
 ---------------------------------------------------------------------
      1         26           0        0.000000    0.000000    0.305882
      2          8           0        0.000000    0.000000   -0.994118
 ---------------------------------------------------------------------

 SCF Done:  E(ROHF) =  -138.708551496     A.U. after   26 cycles
 E2 =    -0.1094023209D+01 EUMP2 =    -0.13980257470496D+03
 CCSD(T)
 CCSD(T)= -0.13979172592D+03

 Unable to determine electronic state:  partially filled degenerate orbitals.
 Alpha  occ. eigenvalues --   -4.47345  -2.98531  -2.92259  -2.92259  -1.29309
 Alpha  occ. eigenvalues --   -0.76001  -0.76001  -0.63004  -0.61422  -0.58642
 Alpha  occ. eigenvalues --   -0.43243  -0.43243  -0.30913
 Alpha virt. eigenvalues --    0.01610   0.02275   0.02275   0.03062   0.05422
 Alpha virt. eigenvalues --    0.06458   0.06458   0.06662   0.06672   0.07589
 Alpha virt. eigenvalues --    0.07995   0.07995   0.11480   0.15596   0.19612

 Mulliken charges and spin densities:
               1          2
     1  Fe   0.905161   3.730553
     2  O   -0.905161   0.269447
 Sum of Mulliken charges =  -0.00000   4.00000

 Dipole moment (field-independent basis, Debye):
    X=              0.0000    Y=              0.0000    Z=              3.0374  Tot=              3.0374
 Quadrupole moment (field-independent basis, Debye-Ang):
   XX=            -19.1802   YY=            -19.1802   ZZ=            -21.4249
   XY=              0.0000   XZ=              0.0000   YZ=              0.0000

 \\#P ROCCSD(T)=(MaxCyc=150, Full)/Gen SCF=(maxcycle=400) Pseudo=Read I
 30216\CCSD=-139.7445182\CCSD(T)=-139.7917259\RMSD=9.798e-09\PG=C*V [C*
 Normal termination of Gaussian 16 at Sun Mar 25 09:12:28 2018.
