 Gaussian 16, Revision A.03,
 Gaussian 16:  ES64L-G16RevA.03 25-Dec-2016

 ----------------------------------------------------------------------
 #P ROCCSD(T)=(MaxCyc=150, Full)/Gen SCF=(maxcycle=400) Pseudo=Read Int
 egral(NoXCTest) Pop=Regular MaxDisk=500GB
 ----------------------------------------------------------------------

 ---
 FeO
 ---
 Symbolic Z-matrix:
 Charge =  0 Multiplicity = 5

                         Standard orientation:
 ---------------------------------------------------------------------
 Center     Atomic      Atomic             Coordinates (Angstroms)
 Number     Number       Type             X           Y           Z
 ---------------------------------------------------------------------
      1         26           0        0.000000    0.000000    0.305882
      2          8           0        0.000000    0.000000   -0.994118
 ---------------------------------------------------------------------

 SCF Done:  E(ROHF) =  -138.704206377     A.U. after   28 cycles
 E2 =    -0.1045801943D+01 EUMP2 =    -0.13975000832058D+03
 CCSD(T)
 CCSD(T)= -0.13974136729D+03

 Unable to determine electronic state:  partially filled degenerate orbitals.
 Alpha  occ. eigenvalues --   -4.47374  -2.98583  -2.92285  -2.92285  -1.29383
 Alpha  occ. eigenvalues --   -0.76009  -0.76009  -0.63018  -0.61438  -0.58652
 Alpha  occ. eigenvalues --   -0.43242  -0.43242  -0.30930
 Alpha virt. eigenvalues --    0.01714   0.02506   0.02506   0.03324   0.06053
 Alpha virt. eigenvalues --    0.08048   0.08048   0.09915   0.09944   0.10283
 Alpha virt. eigenvalues --    0.10283   0.10722   0.12651   0.17009   0.26225

 Mulliken charges and spin densities:
               1          2
     1  Fe   0.729257   3.742560
     2  O   -0.729257   0.257440
 Sum of Mulliken charges =  -0.00000   4.00000

 Dipole moment (field-independent basis, Debye):
    X=              0.0000    Y=              0.0000    Z=              3.0478  Tot=              3.0478
 Quadrupole moment (field-independent basis, Debye-Ang):
   XX=            -19.1814   YY=            -19.1814   ZZ=            -21.4430
   XY=              0.0000   XZ=              0.0000   YZ=              0.0000

 \\#P ROCCSD(T)=(MaxCyc=150, Full)/Gen SCF=(maxcycle=400) Pseudo=Read I
 52429\CCSD=-139.6962736\CCSD(T)=-139.7413673\RMSD=6.096e-09\PG=C*V [C*
 Normal termination of Gaussian 16 at Sun Mar 25 07:18:50 2018.
