 Gaussian 16, Revision A.03,
 Gaussian 16:  ES64L-G16RevA.03 25-Dec-2016

 ----------------------------------------------------------------------
 #P ROCCSD(T)=(maxcyc=150, Full, SaveAmplitudes, ReadAmplitudes)/Gen 5d
  7f SCF=(maxcycles=300) Integral(NoXCTest, DKHSO) MaxDisk=500GB Pop=Re
 gular Guess=Read
 ----------------------------------------------------------------------

 ---
 MnO
 ---
 Symbolic Z-matrix:
 Charge =  0 Multiplicity = 6

                         Standard orientation:
 ---------------------------------------------------------------------
 Center     Atomic      Atomic             Coordinates (Angstroms)
 Number     Number       Type             X           Y           Z
 ---------------------------------------------------------------------
      1         25           0        0.000000    0.000000    0.436364
      2          8           0        0.000000    0.000000   -1.363636
 ---------------------------------------------------------------------

 SCF Done:  E(ROHF) =  -1232.22526222     A.U. after   22 cycles
 E2 =    -0.1395669746D+01 EUMP2 =    -0.12336209319686D+04
 CCSD(T)
 CCSD(T)= -0.12336329883D+04

 The electronic state is 6-SG.
 Alpha  occ. eigenvalues -- -242.51151 -29.61187 -24.96827 -24.96827 -24.96335
 Alpha  occ. eigenvalues --  -20.44834  -4.09490  -2.74995  -2.74995  -2.74380
 Alpha  occ. eigenvalues --   -1.09318  -0.64961  -0.64961  -0.64673  -0.64673
 Alpha  occ. eigenvalues --   -0.61390  -0.33815  -0.33815  -0.33183
 Alpha virt. eigenvalues --   -0.05131   0.01188   0.01188   0.01434   0.03360
 Alpha virt. eigenvalues --    0.05699   0.05699   0.05717   0.05717   0.06379
 Alpha virt. eigenvalues --    0.06902   0.06902   0.11027   0.12610   0.17843

 Mulliken charges and spin densities:
               1          2
     1  Mn   1.121494   4.938155
     2  O   -1.121494   0.061845
 Sum of Mulliken charges =  -0.00000   5.00000

 Dipole moment (field-independent basis, Debye):
    X=              0.0000    Y=              0.0000    Z=              9.4041  Tot=              9.4041
 Quadrupole moment (field-independent basis, Debye-Ang):
   XX=            -19.3834   YY=            -19.3834   ZZ=            -24.8905
   XY=              0.0000   XZ=              0.0000   YZ=              0.0000

 \\#P ROCCSD(T)=(maxcyc=150, Full, SaveAmplitudes, ReadAmplitudes)/Gen
 252622\PMP2-0=-1233.620932\CCSD=-1233.5882941\CCSD(T)=-1233.6329883\RM
 Normal termination of Gaussian 16 at Wed Mar  7 02:53:11 2018.
