 Gaussian 16, Revision A.03,
 Gaussian 16:  ES64L-G16RevA.03 25-Dec-2016

 ----------------------------------------------------------------------
 #P ROCCSD(T)=(maxcyc=150, Full, SaveAmplitudes, ReadAmplitudes)/Gen 5d
  7f SCF=(maxcycles=300) Integral(NoXCTest) MaxDisk=500GB Pop=Regular P
 seudo=Read Guess=Read
 ----------------------------------------------------------------------

 ---
 ScO
 ---
 Symbolic Z-matrix:
 Charge =  0 Multiplicity = 2

                         Standard orientation:
 ---------------------------------------------------------------------
 Center     Atomic      Atomic             Coordinates (Angstroms)
 Number     Number       Type             X           Y           Z
 ---------------------------------------------------------------------
      1         21           0        0.000000    0.000000    0.551724
      2          8           0        0.000000    0.000000   -1.448276
 ---------------------------------------------------------------------

 SCF Done:  E(ROHF) =  -61.9942829148     A.U. after   15 cycles
 E2 =    -0.7271454907D+00 EUMP2 =    -0.62721428405406D+02
 CCSD(T)
 CCSD(T)= -0.62752411525D+02

 The electronic state is 2-SG.
 Alpha  occ. eigenvalues --   -2.79301  -1.70134  -1.70134  -1.69594  -1.09745
 Alpha  occ. eigenvalues --   -0.38952  -0.34666  -0.34666  -0.28380
 Alpha virt. eigenvalues --   -0.01371  -0.01371   0.00514   0.01601   0.02371
 Alpha virt. eigenvalues --    0.02371   0.02519   0.02519   0.03060   0.03301
 Alpha virt. eigenvalues --    0.03301   0.04051   0.04432   0.04432   0.08637

 Mulliken charges and spin densities:
               1          2
     1  Sc   1.203654   0.981963
     2  O   -1.203654   0.018037
 Sum of Mulliken charges =  -0.00000   1.00000

 Dipole moment (field-independent basis, Debye):
    X=              0.0000    Y=              0.0000    Z=              7.4497  Tot=              7.4497
 Quadrupole moment (field-independent basis, Debye-Ang):
   XX=            -22.0731   YY=            -22.0731   ZZ=            -35.0461
   XY=              0.0000   XZ=              0.0000   YZ=              0.0000

 \\#P ROCCSD(T)=(maxcyc=150, Full, SaveAmplitudes, ReadAmplitudes)/Gen
 42829\PMP2-0=-62.7214284\CCSD=-62.6996673\CCSD(T)=-62.7524115\RMSD=2.4
 Normal termination of Gaussian 16 at Wed Feb 21 09:19:43 2018.
