 Gaussian 16, Revision A.03,
 Gaussian 16:  ES64L-G16RevA.03 25-Dec-2016

 ----------------------------------------------------------------------
 #P ROCCSD(T)=(maxcyc=150, Full, SaveAmplitudes, ReadAmplitudes)/Gen 5d
  7f SCF=(maxcycles=300) Integral(NoXCTest) MaxDisk=500GB Pop=Regular P
 seudo=Read Guess=Read IOp(5/15=2)
 ----------------------------------------------------------------------

 ---
 TiO
 ---
 Symbolic Z-matrix:
 Charge =  0 Multiplicity = 3

                         Standard orientation:
 ---------------------------------------------------------------------
 Center     Atomic      Atomic             Coordinates (Angstroms)
 Number     Number       Type             X           Y           Z
 ---------------------------------------------------------------------
      1         22           0        0.000000    0.000000    0.400000
      2          8           0        0.000000    0.000000   -1.100000
 ---------------------------------------------------------------------

 SCF Done:  E(ROHF) =  -73.2644173846     A.U. after   22 cycles
 E2 =    -0.7410535426D+00 EUMP2 =    -0.74005470927198D+02
 CCSD(T)
 CCSD(T)= -0.74032210993D+02

 Unable to determine electronic state:  an orbital has unidentified symmetry.
 Alpha  occ. eigenvalues --   -2.97452  -1.90443  -1.88265  -1.88265  -1.16244
 Alpha  occ. eigenvalues --   -0.49076  -0.49076  -0.48613  -0.42137  -0.24802
 Alpha virt. eigenvalues --    0.00734   0.00734   0.01912   0.02585   0.04399
 Alpha virt. eigenvalues --    0.04399   0.04946   0.05041   0.05235   0.05841
 Alpha virt. eigenvalues --    0.05841   0.07459   0.11380   0.11866   0.14120

 Mulliken charges and spin densities:
               1          2
     1  Ti   0.858277   2.009548
     2  O   -0.858277  -0.009548
 Sum of Mulliken charges =  -0.00000   2.00000

 Dipole moment (field-independent basis, Debye):
    X=              0.0000    Y=              0.0000    Z=              3.0740  Tot=              3.0740
 Quadrupole moment (field-independent basis, Debye-Ang):
   XX=            -21.6036   YY=            -21.6036   ZZ=            -28.4456
   XY=              0.0000   XZ=              0.0000   YZ=              0.0000

 \\#P ROCCSD(T)=(maxcyc=150, Full, SaveAmplitudes, ReadAmplitudes)/Gen
 .9914058\CCSD(T)=-74.032211\RMSD=2.536e-09\PG=C*V [C*(O1Ti1)]\\@
 Normal termination of Gaussian 16 at Sat Mar 10 00:11:25 2018.
