 Gaussian 16, Revision A.03,
 Gaussian 16:  ES64L-G16RevA.03 25-Dec-2016

 ----------------------------------------------------------------------
 #P ROCCSD(T)=(maxcyc=150, Full, SaveAmplitudes, ReadAmplitudes)/Gen 5d
  7f SCF=(maxcycles=300) Integral(NoXCTest) MaxDisk=500GB Pop=Regular P
 seudo=Read Guess=Read IOp(5/15=2)
 ----------------------------------------------------------------------

 ---
 TiO
 ---
 Symbolic Z-matrix:
 Charge =  0 Multiplicity = 3

                         Standard orientation:
 ---------------------------------------------------------------------
 Center     Atomic      Atomic             Coordinates (Angstroms)
 Number     Number       Type             X           Y           Z
 ---------------------------------------------------------------------
      1         22           0        0.000000    0.000000    0.506667
      2          8           0        0.000000    0.000000   -1.393333
 ---------------------------------------------------------------------

 SCF Done:  E(ROHF) =  -73.3364893399     A.U. after   23 cycles
 E2 =    -0.7566822331D+00 EUMP2 =    -0.74093171573069D+02
 CCSD(T)
 CCSD(T)= -0.74130945967D+02

 Unable to determine electronic state:  an orbital has unidentified symmetry.
 Alpha  occ. eigenvalues --   -3.08105  -1.98022  -1.98022  -1.93409  -1.12376
 Alpha  occ. eigenvalues --   -0.52739  -0.41407  -0.37401  -0.37401  -0.29742
 Alpha virt. eigenvalues --   -0.00957  -0.00957   0.00036   0.01957   0.03321
 Alpha virt. eigenvalues --    0.03321   0.03717   0.04451   0.05026   0.05949
 Alpha virt. eigenvalues --    0.05949   0.06100   0.07467   0.10451   0.10451

 Mulliken charges and spin densities:
               1          2
     1  Ti   0.961482   1.986312
     2  O   -0.961482   0.013688
 Sum of Mulliken charges =  -0.00000   2.00000

 Dipole moment (field-independent basis, Debye):
    X=              0.0000    Y=              0.0000    Z=              7.0214  Tot=              7.0214
 Quadrupole moment (field-independent basis, Debye-Ang):
   XX=            -21.7343   YY=            -21.7343   ZZ=            -30.7158
   XY=              0.0000   XZ=              0.0000   YZ=              0.0000

 \\#P ROCCSD(T)=(maxcyc=150, Full, SaveAmplitudes, ReadAmplitudes)/Gen
 .0736561\CCSD(T)=-74.130946\RMSD=5.346e-09\PG=C*V [C*(O1Ti1)]\\@
 Normal termination of Gaussian 16 at Sat Mar 10 02:24:29 2018.
