 Gaussian 16, Revision A.03,
 Gaussian 16:  ES64L-G16RevA.03 25-Dec-2016

 ----------------------------------------------------------------------
 #P ROCCSD(T)=(maxcyc=150, Full, SaveAmplitudes, ReadAmplitudes)/Gen 5d
  7f SCF=(maxcycles=300) Integral(NoXCTest) MaxDisk=500GB Pop=Regular P
 seudo=Read Guess=Read IOp(5/15=2)
 ----------------------------------------------------------------------

 ---
 ScO
 ---
 Symbolic Z-matrix:
 Charge =  0 Multiplicity = 2

                         Standard orientation:
 ---------------------------------------------------------------------
 Center     Atomic      Atomic             Coordinates (Angstroms)
 Number     Number       Type             X           Y           Z
 ---------------------------------------------------------------------
      1         21           0        0.000000    0.000000    0.524138
      2          8           0        0.000000    0.000000   -1.375862
 ---------------------------------------------------------------------

 SCF Done:  E(ROHF) =  -61.8930097424     A.U. after   16 cycles
 E2 =    -0.6907761279D+00 EUMP2 =    -0.62583785870318D+02
 CCSD(T)
 CCSD(T)= -0.62616398519D+02

 The electronic state is 2-SG.
 Alpha  occ. eigenvalues --   -2.70763  -1.68901  -1.68847  -1.68847  -1.11019
 Alpha  occ. eigenvalues --   -0.40302  -0.36514  -0.36514  -0.27411
 Alpha virt. eigenvalues --   -0.00883  -0.00883   0.00912   0.01947   0.03041
 Alpha virt. eigenvalues --    0.03041   0.03347   0.03347   0.04100   0.04314
 Alpha virt. eigenvalues --    0.04314   0.04897   0.06041   0.06041   0.09969

 Mulliken charges and spin densities:
               1          2
     1  Sc   1.209189   0.977573
     2  O   -1.209189   0.022427
 Sum of Mulliken charges =  -0.00000   1.00000

 Dipole moment (field-independent basis, Debye):
    X=              0.0000    Y=              0.0000    Z=              6.6085  Tot=              6.6085
 Quadrupole moment (field-independent basis, Debye-Ang):
   XX=            -21.9957   YY=            -21.9957   ZZ=            -34.2125
   XY=              0.0000   XZ=              0.0000   YZ=              0.0000

 \\#P ROCCSD(T)=(maxcyc=150, Full, SaveAmplitudes, ReadAmplitudes)/Gen
 15\CCSD=-62.5691264\CCSD(T)=-62.6163985\RMSD=8.725e-09\PG=C*V [C*(O1Sc
 Normal termination of Gaussian 16 at Wed Feb 21 06:56:49 2018.
