 Gaussian 16, Revision A.03,
 Gaussian 16:  ES64L-G16RevA.03 25-Dec-2016

 ----------------------------------------------------------------------
 #P ROCCSD(T)=(maxcyc=150, Full)/Gen 5d 7f SCF=(maxcycles=300, NoVarAcc
 , VShift=200) MaxDisk=100GB Pop=Regular Pseudo=Read Guess=Read IOp(5/1
 5=2)
 ----------------------------------------------------------------------

 --
 Mn
 --
 Symbolic Z-matrix:
 Charge =  0 Multiplicity = 6

                         Standard orientation:
 ---------------------------------------------------------------------
 Center     Atomic      Atomic             Coordinates (Angstroms)
 Number     Number       Type             X           Y           Z
 ---------------------------------------------------------------------
      1         25           0        0.000000    0.000000    0.000000
 ---------------------------------------------------------------------

 SCF Done:  E(ROHF) =  -103.690744107     A.U. after   21 cycles
 E2 =    -0.6137831840D+00 EUMP2 =    -0.10430452729119D+03
 CCSD(T)
 CCSD(T)= -0.10432224393D+03

 The electronic state is 6-A1G.
 Alpha  occ. eigenvalues --   -4.14222  -2.74550  -2.74550  -2.74550  -0.64071
 Alpha  occ. eigenvalues --   -0.64071  -0.64071  -0.64071  -0.64071  -0.26747
 Alpha virt. eigenvalues --    0.01734   0.01734   0.01734   0.02125   0.05596
 Alpha virt. eigenvalues --    0.05596   0.05596   0.05596   0.05596   0.05670
 Alpha virt. eigenvalues --    0.05670   0.05670   0.10432   0.17419   0.17419

 Mulliken charges and spin densities:
               1          2
     1  Mn  -0.000000   5.000000
 Sum of Mulliken charges =  -0.00000   5.00000

 Dipole moment (field-independent basis, Debye):
    X=              0.0000    Y=              0.0000    Z=              0.0000  Tot=              0.0000
 Quadrupole moment (field-independent basis, Debye-Ang):
   XX=            -18.7396   YY=            -18.7396   ZZ=            -18.7396
   XY=              0.0000   XZ=             -0.0000   YZ=             -0.0000

 1\1\GINC-C506-094\SP\ROCCSD(T)-Full\Gen\Mn1(6)\AANNABE\01-Apr-2018\0\\
 #P ROCCSD(T)=(maxcyc=150, Full)/Gen 5d 7f SCF=(maxcycles=300, NoVarAcc
 , VShift=200) MaxDisk=100GB Pop=Regular Pseudo=Read Guess=Read IOp(5/1
 5=2)\\Mn\\0,6\Mn,0,0.,0.,0.\\Version=ES64L-G16RevA.03\State=6-A1G\HF=-
 103.6907441\MP2=-104.3045273\MP3=-104.3006935\PUHF=-103.6907441\PMP2-0
 =-104.3045273\MP4SDQ=-104.3032021\CCSD=-104.3033165\CCSD(T)=-104.32224
 39\RMSD=4.375e-09\PG=OH [O(Mn1)]\\@

 Normal termination of Gaussian 16 at Sun Apr  1 23:44:52 2018.
