 Gaussian 16, Revision A.03,
 Gaussian 16:  ES64L-G16RevA.03 25-Dec-2016

 ----------------------------------------------------------------------
 #P ROCCSD(T)=(MaxCyc=150, Full)/Gen SCF=(maxcycle=400) Pseudo=Read Int
 egral(NoXCTest) Pop=Regular MaxDisk=500GB Guess=Read IOp(5/15=2)
 ----------------------------------------------------------------------

 ---
 NiO
 ---
 Symbolic Z-matrix:
 Charge =  0 Multiplicity = 3

                         Standard orientation:
 ---------------------------------------------------------------------
 Center     Atomic      Atomic             Coordinates (Angstroms)
 Number     Number       Type             X           Y           Z
 ---------------------------------------------------------------------
      1         28           0        0.000000    0.000000    0.266667
      2          8           0        0.000000    0.000000   -0.933333
 ---------------------------------------------------------------------

 SCF Done:  E(ROHF) =  -185.342839342     A.U. after   22 cycles
 E2 =    -0.1278103927D+01 EUMP2 =    -0.18662094326989D+03
 CCSD(T)
 CCSD(T)= -0.18656820139D+03

 The electronic state is 3-SG.
 Alpha  occ. eigenvalues --   -5.21334  -3.61626  -3.47863  -3.47863  -1.37755
 Alpha  occ. eigenvalues --   -0.90377  -0.90377  -0.76913  -0.70874  -0.70874
 Alpha  occ. eigenvalues --   -0.49384  -0.49384  -0.33717
 Alpha virt. eigenvalues --    0.00686   0.03013   0.03013   0.03551   0.05215
 Alpha virt. eigenvalues --    0.10140   0.10140   0.12003   0.12650   0.12650
 Alpha virt. eigenvalues --    0.12835   0.12835   0.13668   0.19114   0.25928

 Mulliken charges and spin densities:
               1          2
     1  Ni   0.752989   1.568149
     2  O   -0.752989   0.431851
 Sum of Mulliken charges =  -0.00000   2.00000

 Dipole moment (field-independent basis, Debye):
    X=              0.0000    Y=              0.0000    Z=              2.8822  Tot=              2.8822
 Quadrupole moment (field-independent basis, Debye-Ang):
   XX=            -18.9906   YY=            -18.9906   ZZ=            -18.7639
   XY=              0.0000   XZ=              0.0000   YZ=              0.0000

 \\#P ROCCSD(T)=(MaxCyc=150, Full)/Gen SCF=(maxcycle=400) Pseudo=Read I
 PMP2-0=-186.6209433\MP4SDQ=-186.5709558\CCSD=-186.5151923\CCSD(T)=-186
 Normal termination of Gaussian 16 at Tue Mar 27 00:29:20 2018.
