 Gaussian 16, Revision A.03,
 Gaussian 16:  ES64L-G16RevA.03 25-Dec-2016

 ----------------------------------------------------------------------
 #P ROCCSD(T)=(MaxCyc=150, Full)/Gen SCF=(maxcycle=400) Pseudo=Read Int
 egral(NoXCTest) Pop=Regular MaxDisk=500GB Guess=Read IOp(5/15=2)
 ----------------------------------------------------------------------

 ---
 NiO
 ---
 Symbolic Z-matrix:
 Charge =  0 Multiplicity = 3

                         Standard orientation:
 ---------------------------------------------------------------------
 Center     Atomic      Atomic             Coordinates (Angstroms)
 Number     Number       Type             X           Y           Z
 ---------------------------------------------------------------------
      1         28           0        0.000000    0.000000    0.266667
      2          8           0        0.000000    0.000000   -0.933333
 ---------------------------------------------------------------------

 SCF Done:  E(ROHF) =  -185.347421681     A.U. after   18 cycles
 E2 =    -0.1336037450D+01 EUMP2 =    -0.18668345913043D+03
 CCSD(T)
 CCSD(T)= -0.18662860681D+03

 The electronic state is 3-SG.
 Alpha  occ. eigenvalues --   -5.21330  -3.61601  -3.47856  -3.47856  -1.37695
 Alpha  occ. eigenvalues --   -0.90390  -0.90390  -0.76908  -0.70882  -0.70882
 Alpha  occ. eigenvalues --   -0.49402  -0.49402  -0.33702
 Alpha virt. eigenvalues --    0.00640   0.02686   0.02686   0.03219   0.04886
 Alpha virt. eigenvalues --    0.07811   0.07811   0.08096   0.08366   0.08366
 Alpha virt. eigenvalues --    0.09651   0.09651   0.11696   0.17582   0.22169

 Mulliken charges and spin densities:
               1          2
     1  Ni   0.520125   1.582453
     2  O   -0.520125   0.417547
 Sum of Mulliken charges =  -0.00000   2.00000

 Dipole moment (field-independent basis, Debye):
    X=              0.0000    Y=              0.0000    Z=              2.8705  Tot=              2.8705
 Quadrupole moment (field-independent basis, Debye-Ang):
   XX=            -18.9888   YY=            -18.9888   ZZ=            -18.7502
   XY=              0.0000   XZ=              0.0000   YZ=              0.0000

 \\#P ROCCSD(T)=(MaxCyc=150, Full)/Gen SCF=(maxcycle=400) Pseudo=Read I
 PMP2-0=-186.6834591\MP4SDQ=-186.6279091\CCSD=-186.5730809\CCSD(T)=-186
 Normal termination of Gaussian 16 at Tue Mar 27 02:43:07 2018.
