 Gaussian 16, Revision A.03,
 Gaussian 16:  ES64L-G16RevA.03 25-Dec-2016

 ----------------------------------------------------------------------
 #P ROCCSD(T)=(MaxCyc=150, Full)/Gen SCF=(maxcycle=400, vshift=200) Pse
 udo=Read Integral(NoXCTest) Pop=Regular MaxDisk=500GB Guess=Read IOp(5
 /15=2)
 ----------------------------------------------------------------------

 ---
 CoO
 ---
 Symbolic Z-matrix:
 Charge =  0 Multiplicity = 4

                         Standard orientation:
 ---------------------------------------------------------------------
 Center     Atomic      Atomic             Coordinates (Angstroms)
 Number     Number       Type             X           Y           Z
 ---------------------------------------------------------------------
      1         27           0        0.000000    0.000000    0.342857
      2          8           0        0.000000    0.000000   -1.157143
 ---------------------------------------------------------------------

 SCF Done:  E(ROHF) =  -159.958739539     A.U. after   21 cycles
 E2 =    -0.1143798277D+01 EUMP2 =    -0.16110253781604D+03
 CCSD(T)
 CCSD(T)= -0.16111659353D+03

 Unable to determine electronic state:  partially filled degenerate orbitals.
 Alpha  occ. eigenvalues --   -4.83887  -3.26044  -3.24957  -3.24957  -1.21162
 Alpha  occ. eigenvalues --   -0.77435  -0.77435  -0.74929  -0.69929  -0.66932
 Alpha  occ. eigenvalues --   -0.40695  -0.40695  -0.36372
 Alpha virt. eigenvalues --   -0.03490   0.02086   0.02086   0.02464   0.03711
 Alpha virt. eigenvalues --    0.06936   0.06936   0.07078   0.07207   0.07215
 Alpha virt. eigenvalues --    0.08735   0.08735   0.12807   0.14834   0.21362

 Mulliken charges and spin densities:
               1          2
     1  Co   0.979452   2.853951
     2  O   -0.979452   0.146049
 Sum of Mulliken charges =  -0.00000   3.00000

 Dipole moment (field-independent basis, Debye):
    X=              0.0000    Y=              0.0000    Z=              6.8252  Tot=              6.8252
 Quadrupole moment (field-independent basis, Debye-Ang):
   XX=            -18.9958   YY=            -18.9958   ZZ=            -20.7658
   XY=              0.0000   XZ=              0.0000   YZ=              0.0000

 \\#P ROCCSD(T)=(MaxCyc=150, Full)/Gen SCF=(maxcycle=400, vshift=200) P
 \PMP2-0=-161.1025378\MP4SDQ=-161.0728409\CCSD=-161.0609209\CCSD(T)=-16
 Normal termination of Gaussian 16 at Thu May  3 17:45:03 2018.
