 Gaussian 16, Revision A.03,
 Gaussian 16:  ES64L-G16RevA.03 25-Dec-2016

 ----------------------------------------------------------------------
 #P ROCCSD(T)=(MaxCyc=150, Full)/Gen SCF=(maxcycle=400, vshift=200) Pse
 udo=Read Integral(NoXCTest) Pop=Regular MaxDisk=500GB Guess=Read IOp(5
 /15=2)
 ----------------------------------------------------------------------

 ---
 CoO
 ---
 Symbolic Z-matrix:
 Charge =  0 Multiplicity = 4

                         Standard orientation:
 ---------------------------------------------------------------------
 Center     Atomic      Atomic             Coordinates (Angstroms)
 Number     Number       Type             X           Y           Z
 ---------------------------------------------------------------------
      1         27           0        0.000000    0.000000    0.342857
      2          8           0        0.000000    0.000000   -1.157143
 ---------------------------------------------------------------------

 SCF Done:  E(ROHF) =  -159.955272353     A.U. after   24 cycles
 E2 =    -0.1091703684D+01 EUMP2 =    -0.16104697603674D+03
 CCSD(T)
 CCSD(T)= -0.16106364574D+03

 Unable to determine electronic state:  partially filled degenerate orbitals.
 Alpha  occ. eigenvalues --   -4.83909  -3.26073  -3.24982  -3.24982  -1.21209
 Alpha  occ. eigenvalues --   -0.77437  -0.77437  -0.74932  -0.69929  -0.66941
 Alpha  occ. eigenvalues --   -0.40689  -0.40689  -0.36389
 Alpha virt. eigenvalues --   -0.03496   0.02401   0.02401   0.02726   0.04102
 Alpha virt. eigenvalues --    0.08289   0.08289   0.10028   0.10988   0.11015
 Alpha virt. eigenvalues --    0.11793   0.11793   0.14825   0.15932   0.26145

 Mulliken charges and spin densities:
               1          2
     1  Co   1.034338   2.851995
     2  O   -1.034338   0.148005
 Sum of Mulliken charges =  -0.00000   3.00000

 Dipole moment (field-independent basis, Debye):
    X=              0.0000    Y=              0.0000    Z=              6.8362  Tot=              6.8362
 Quadrupole moment (field-independent basis, Debye-Ang):
   XX=            -18.9974   YY=            -18.9974   ZZ=            -20.7835
   XY=              0.0000   XZ=              0.0000   YZ=              0.0000

 \\#P ROCCSD(T)=(MaxCyc=150, Full)/Gen SCF=(maxcycle=400, vshift=200) P
 MP2-0=-161.046976\MP4SDQ=-161.0229661\CCSD=-161.0102992\CCSD(T)=-161.0
 Normal termination of Gaussian 16 at Thu May  3 15:19:43 2018.
