 Gaussian 16, Revision A.03,
 Gaussian 16:  ES64L-G16RevA.03 25-Dec-2016

 ----------------------------------------------------------------------
 #P ROCCSD(T)=(MaxCyc=150, Full)/Gen SCF=(maxcycle=400) Pseudo=Read Int
 egral(NoXCTest) Pop=Regular MaxDisk=500GB Guess=Read IOp(5/15=2)
 ----------------------------------------------------------------------

 ---
 CuO
 ---
 Symbolic Z-matrix:
 Charge =  0 Multiplicity = 2

                         Standard orientation:
 ---------------------------------------------------------------------
 Center     Atomic      Atomic             Coordinates (Angstroms)
 Number     Number       Type             X           Y           Z
 ---------------------------------------------------------------------
      1         29           0        0.000000    0.000000    0.324324
      2          8           0        0.000000    0.000000   -1.175676
 ---------------------------------------------------------------------

 SCF Done:  E(ROHF) =  -211.897383068     A.U. after   27 cycles
 E2 =    -0.1306442251D+01 EUMP2 =    -0.21320382531870D+03
 CCSD(T)
 CCSD(T)= -0.21313477425D+03

 Unable to determine electronic state:  an orbital has unidentified symmetry.
 Alpha  occ. eigenvalues --   -5.29939  -3.51067  -3.49563  -3.48904  -1.29200
 Alpha  occ. eigenvalues --   -0.64685  -0.61090  -0.59171  -0.54594  -0.54592
 Alpha  occ. eigenvalues --   -0.48087  -0.42578  -0.38195
 Alpha virt. eigenvalues --   -0.00525   0.03003   0.03172   0.04014   0.05009
 Alpha virt. eigenvalues --    0.10730   0.11167   0.13720   0.19377   0.19885
 Alpha virt. eigenvalues --    0.19905   0.21396   0.21448   0.22428   0.26025

 Mulliken charges and spin densities:
               1          2
     1  Cu   0.864694   0.049485
     2  O   -0.864694   0.950515
 Sum of Mulliken charges =  -0.00000   1.00000

 Dipole moment (field-independent basis, Debye):
    X=              0.0000    Y=              0.0000    Z=              4.8582  Tot=              4.8582
 Quadrupole moment (field-independent basis, Debye-Ang):
   XX=            -16.1432   YY=            -17.6585   ZZ=            -18.8046
   XY=              0.0000   XZ=              0.0000   YZ=              0.0000

 \\#P ROCCSD(T)=(MaxCyc=150, Full)/Gen SCF=(maxcycle=400) Pseudo=Read I
 .2038253\MP4SDQ=-213.1675597\CCSD=-213.0845044\CCSD(T)=-213.1347742\RM
 Normal termination of Gaussian 16 at Mon Mar 26 12:54:55 2018.
