 Gaussian 16, Revision A.03,
 Gaussian 16:  ES64L-G16RevA.03 25-Dec-2016

 ----------------------------------------------------------------------
 #P ROCCSD(T)=(MaxCyc=150, Full)/Gen SCF=(maxcycle=400) Pseudo=Read Int
 egral(NoXCTest) Pop=Regular MaxDisk=500GB Guess=Read IOp(5/15=2)
 ----------------------------------------------------------------------

 ---
 CuO
 ---
 Symbolic Z-matrix:
 Charge =  0 Multiplicity = 2

                         Standard orientation:
 ---------------------------------------------------------------------
 Center     Atomic      Atomic             Coordinates (Angstroms)
 Number     Number       Type             X           Y           Z
 ---------------------------------------------------------------------
      1         29           0        0.000000    0.000000    0.324324
      2          8           0        0.000000    0.000000   -1.175676
 ---------------------------------------------------------------------

 SCF Done:  E(ROHF) =  -211.901256963     A.U. after   20 cycles
 E2 =    -0.1370499210D+01 EUMP2 =    -0.21327175617274D+03
 CCSD(T)
 CCSD(T)= -0.21319989352D+03

 Unable to determine electronic state:  an orbital has unidentified symmetry.
 Alpha  occ. eigenvalues --   -5.29938  -3.51049  -3.49554  -3.48898  -1.29132
 Alpha  occ. eigenvalues --   -0.64692  -0.61095  -0.59156  -0.54597  -0.54596
 Alpha  occ. eigenvalues --   -0.48089  -0.42581  -0.38181
 Alpha virt. eigenvalues --   -0.00538   0.02663   0.02799   0.03597   0.04714
 Alpha virt. eigenvalues --    0.09212   0.09551   0.12032   0.13640   0.13652
 Alpha virt. eigenvalues --    0.14265   0.14294   0.14690   0.19117   0.21689

 Mulliken charges and spin densities:
               1          2
     1  Cu   0.702129   0.053683
     2  O   -0.702129   0.946317
 Sum of Mulliken charges =   0.00000   1.00000

 Dipole moment (field-independent basis, Debye):
    X=              0.0000    Y=              0.0000    Z=              4.8437  Tot=              4.8437
 Quadrupole moment (field-independent basis, Debye-Ang):
   XX=            -16.1338   YY=            -17.6324   ZZ=            -18.8167
   XY=              0.0000   XZ=              0.0000   YZ=              0.0000

 \\#P ROCCSD(T)=(MaxCyc=150, Full)/Gen SCF=(maxcycle=400) Pseudo=Read I
 717562\MP4SDQ=-213.2292166\CCSD=-213.1470415\CCSD(T)=-213.1998935\RMSD
 Normal termination of Gaussian 16 at Mon Mar 26 15:26:25 2018.
