 Gaussian 16, Revision A.03,
 Gaussian 16:  ES64L-G16RevA.03 25-Dec-2016

 ----------------------------------------------------------------------
 #P ROCCSD(T)=(maxcyc=150, Full, SaveAmplitudes, ReadAmplitudes)/Gen 5d
  7f SCF=(maxcycles=300) Integral(NoXCTest) MaxDisk=500GB Pop=Regular P
 seudo=Read Guess=Read IOp(5/15=2)
 ----------------------------------------------------------------------

 ---
 CrH
 ---
 Symbolic Z-matrix:
 Charge =  0 Multiplicity = 6

                         Standard orientation:
 ---------------------------------------------------------------------
 Center     Atomic      Atomic             Coordinates (Angstroms)
 Number     Number       Type             X           Y           Z
 ---------------------------------------------------------------------
      1         24           0        0.000000    0.000000    0.076000
      2          1           0        0.000000    0.000000   -1.824000
 ---------------------------------------------------------------------

 SCF Done:  E(ROHF) =  -86.3701698569     A.U. after   29 cycles
 E2 =    -0.5133911630D+00 EUMP2 =    -0.86883561019911D+02
 CCSD(T)
 CCSD(T)= -0.86926245830D+02

 The electronic state is 6-SG.
 Alpha  occ. eigenvalues --   -3.87292  -2.59207  -2.59207  -2.54438  -0.52129
 Alpha  occ. eigenvalues --   -0.52129  -0.49088  -0.49088  -0.39555  -0.27410
 Alpha virt. eigenvalues --    0.01076   0.01076   0.02247   0.02628   0.05209
 Alpha virt. eigenvalues --    0.05209   0.05583   0.07591   0.07591   0.08025
 Alpha virt. eigenvalues --    0.08025   0.09109   0.10387   0.16911   0.20262

 Mulliken charges and spin densities:
               1          2
     1  Cr   0.362601   4.975329
     2  H   -0.362601   0.024671
 Sum of Mulliken charges =  -0.00000   5.00000

 Dipole moment (field-independent basis, Debye):
    X=              0.0000    Y=              0.0000    Z=              2.5471  Tot=              2.5471
 Quadrupole moment (field-independent basis, Debye-Ang):
   XX=            -17.3592   YY=            -17.3592   ZZ=            -25.9221
   XY=              0.0000   XZ=              0.0000   YZ=              0.0000

 \\#P ROCCSD(T)=(maxcyc=150, Full, SaveAmplitudes, ReadAmplitudes)/Gen
 \CCSD=-86.9100606\CCSD(T)=-86.9262458\RMSD=1.059e-09\PG=C*V [C*(H1Cr1)
 Normal termination of Gaussian 16 at Mon Feb 26 15:35:59 2018.
