 Gaussian 16, Revision A.03,
 Gaussian 16:  ES64L-G16RevA.03 25-Dec-2016

 ----------------------------------------------------------------------
 #P ROCCSD(T)=(maxcyc=150, Full, SaveAmplitudes, ReadAmplitudes)/Gen 5d
  7f SCF=(maxcycles=300) Integral(NoXCTest) MaxDisk=500GB Pop=Regular P
 seudo=Read Guess=Read
 ----------------------------------------------------------------------

 ---
 TiO
 ---
 Symbolic Z-matrix:
 Charge =  0 Multiplicity = 3

                         Standard orientation:
 ---------------------------------------------------------------------
 Center     Atomic      Atomic             Coordinates (Angstroms)
 Number     Number       Type             X           Y           Z
 ---------------------------------------------------------------------
      1         22           0        0.000000    0.000000    0.320000
      2          8           0        0.000000    0.000000   -0.880000
 ---------------------------------------------------------------------

 SCF Done:  E(ROHF) =  -73.2617564547     A.U. after   20 cycles
 E2 =    -0.7577323117D+00 EUMP2 =    -0.74019488766427D+02
 CCSD(T)
 CCSD(T)= -0.74043076497D+02

 Unable to determine electronic state:  an orbital has unidentified symmetry.
 Alpha  occ. eigenvalues --   -2.97810  -2.01327  -1.80196  -1.80196  -1.11972
 Alpha  occ. eigenvalues --   -0.65465  -0.65465  -0.54408  -0.32906  -0.20105
 Alpha virt. eigenvalues --    0.01227   0.01227   0.01894   0.02568   0.03729
 Alpha virt. eigenvalues --    0.03729   0.03787   0.03829   0.03883   0.04805
 Alpha virt. eigenvalues --    0.04805   0.07266   0.10402   0.10903   0.11097

 Mulliken charges and spin densities:
               1          2
     1  Ti   0.732395   2.002688
     2  O   -0.732395  -0.002688
 Sum of Mulliken charges =  -0.00000   2.00000

 Dipole moment (field-independent basis, Debye):
    X=              0.0000    Y=              0.0000    Z=             -0.6365  Tot=              0.6365
 Quadrupole moment (field-independent basis, Debye-Ang):
   XX=            -22.4128   YY=            -22.4128   ZZ=            -26.2766
   XY=              0.0000   XZ=              0.0000   YZ=              0.0000

 \\#P ROCCSD(T)=(maxcyc=150, Full, SaveAmplitudes, ReadAmplitudes)/Gen
 -0=-74.0194888\CCSD=-74.0099098\CCSD(T)=-74.0430765\RMSD=1.113e-09\PG=
 Normal termination of Gaussian 16 at Mon Mar 12 15:35:29 2018.
