 Gaussian 16, Revision A.03,
 Gaussian 16:  ES64L-G16RevA.03 25-Dec-2016

 ----------------------------------------------------------------------
 #P ROCCSD(T)=(maxcyc=150, Full)/Gen 5d 7f SCF=(maxcycles=300) Integral
 (NoXCTest) MaxDisk=500GB Pop=Regular Pseudo=Read Guess=Read
 ----------------------------------------------------------------------

 ---
 CrH
 ---
 Symbolic Z-matrix:
 Charge =  0 Multiplicity = 6

                         Standard orientation:
 ---------------------------------------------------------------------
 Center     Atomic      Atomic             Coordinates (Angstroms)
 Number     Number       Type             X           Y           Z
 ---------------------------------------------------------------------
      1         24           0        0.000000    0.000000    0.076000
      2          1           0        0.000000    0.000000   -1.824000
 ---------------------------------------------------------------------

 SCF Done:  E(ROHF) =  -86.6910187267     A.U. after   22 cycles
 E2 =    -0.5586180442D+00 EUMP2 =    -0.87249636770929D+02
 CCSD(T)
 CCSD(T)= -0.87254305905D+02

 The electronic state is 6-SG.
 Alpha  occ. eigenvalues --   -3.74422  -2.49919  -2.49919  -2.45012  -0.56855
 Alpha  occ. eigenvalues --   -0.56855  -0.53459  -0.53459  -0.38670  -0.26575
 Alpha virt. eigenvalues --    0.01050   0.01050   0.01789   0.02311   0.04300
 Alpha virt. eigenvalues --    0.04643   0.04643   0.04902   0.04902   0.05226
 Alpha virt. eigenvalues --    0.05226   0.06274   0.08560   0.11174   0.15200

 Mulliken charges and spin densities:
               1          2
     1  Cr   0.343989   4.970851
     2  H   -0.343989   0.029149
 Sum of Mulliken charges =  -0.00000   5.00000

 Dipole moment (field-independent basis, Debye):
    X=              0.0000    Y=              0.0000    Z=              2.6877  Tot=              2.6877
 Quadrupole moment (field-independent basis, Debye-Ang):
   XX=            -17.1734   YY=            -17.1734   ZZ=            -25.9880
   XY=              0.0000   XZ=              0.0000   YZ=              0.0000

 \\#P ROCCSD(T)=(maxcyc=150, Full)/Gen 5d 7f SCF=(maxcycles=300) Integr
 7.2496368\MP4SDQ=-87.2616703\CCSD=-87.2422245\CCSD(T)=-87.2543059\RMSD
 Normal termination of Gaussian 16 at Tue Feb 13 13:44:05 2018.
