 Gaussian 16, Revision A.03,
 Gaussian 16:  ES64L-G16RevA.03 25-Dec-2016

 ----------------------------------------------------------------------
 #P ROCCSD(T)=(maxcyc=150, Window=(7,0), SaveAmplitudes, ReadAmplitudes
 )/Gen 5d 7f SCF=(maxcycles=300) Integral(NoXCTest, DKHSO) MaxDisk=500G
 B Pop=Regular Guess=Read
 ----------------------------------------------------------------------

 ---
 ScO
 ---
 Symbolic Z-matrix:
 Charge =  0 Multiplicity = 2

                         Standard orientation:
 ---------------------------------------------------------------------
 Center     Atomic      Atomic             Coordinates (Angstroms)
 Number     Number       Type             X           Y           Z
 ---------------------------------------------------------------------
      1         21           0        0.000000    0.000000    0.358621
      2          8           0        0.000000    0.000000   -0.941379
 ---------------------------------------------------------------------

 SCF Done:  E(ROHF) =  -838.110665912     A.U. after   17 cycles
 E2 =    -0.6724758294D+00 EUMP2 =    -0.83878314174107D+03
 CCSD(T)
 CCSD(T)= -0.83880533841D+03

 The electronic state is 2-SG.
 Alpha  occ. eigenvalues -- -166.73425 -20.55605 -19.16373 -15.58818 -15.58818
 Alpha  occ. eigenvalues --  -15.58693  -2.57150  -1.75564  -1.52443  -1.52443
 Alpha  occ. eigenvalues --   -1.05478  -0.57802  -0.57802  -0.47053  -0.19445
 Alpha virt. eigenvalues --    0.00955   0.00955   0.01884   0.02294   0.02810
 Alpha virt. eigenvalues --    0.02810   0.02894   0.02894   0.02895   0.04182
 Alpha virt. eigenvalues --    0.04182   0.06555   0.08074   0.08074   0.08560

 Mulliken charges and spin densities:
               1          2
     1  Sc   0.953444   1.007005
     2  O   -0.953444  -0.007005
 Sum of Mulliken charges =  -0.00000   1.00000

 Dipole moment (field-independent basis, Debye):
    X=              0.0000    Y=             -0.0000    Z=              0.1770  Tot=              0.1770
 Quadrupole moment (field-independent basis, Debye-Ang):
   XX=            -23.2342   YY=            -23.2342   ZZ=            -30.0978
   XY=             -0.0000   XZ=              0.0000   YZ=             -0.0000

 1\1\GINC-C483-112\SP\ROCCSD(T)-RW\Gen\O1Sc1(2)\AANNABE\20-Feb-2018\0\\
 #P ROCCSD(T)=(maxcyc=150, Window=(7,0), SaveAmplitudes, ReadAmplitudes
 )/Gen 5d 7f SCF=(maxcycles=300) Integral(NoXCTest, DKHSO) MaxDisk=500G
 B Pop=Regular Guess=Read\\ScO\\0,2\Sc,0,0.,0.,0.\O,0,0.,0.,1.3\\Versio
 n=ES64L-G16RevA.03\State=2-SG\HF=-838.1106659\MP2=-838.7831417\PUHF=-8
 38.1106659\PMP2-0=-838.7831417\CCSD=-838.7755235\CCSD(T)=-838.8053384\
 RMSD=1.324e-10\PG=C*V [C*(O1Sc1)]\\@

 Normal termination of Gaussian 16 at Tue Feb 20 20:26:00 2018.
