 Gaussian 16, Revision A.03,
 Gaussian 16:  ES64L-G16RevA.03 25-Dec-2016

 ----------------------------------------------------------------------
 #P ROCCSD(T)=(maxcyc=150, Full)/Gen 5d 7f SCF=(maxcycles=300) MaxDisk=
 500GB Pop=Regular Pseudo=Read Guess=Read
 ----------------------------------------------------------------------

 --
 Sc
 --
 Symbolic Z-matrix:
 Charge =  0 Multiplicity = 2

                         Standard orientation:
 ---------------------------------------------------------------------
 Center     Atomic      Atomic             Coordinates (Angstroms)
 Number     Number       Type             X           Y           Z
 ---------------------------------------------------------------------
      1         21           0        0.000000    0.000000    0.000000
 ---------------------------------------------------------------------

 SCF Done:  E(ROHF) =  -46.1220990746     A.U. after   11 cycles
 E2 =    -0.3849098857D+00 EUMP2 =    -0.46507008960337D+02
 CCSD(T)
 CCSD(T)= -0.46542387694D+02

 Unable to determine electronic state:  an orbital has unidentified symmetry.
 Alpha  occ. eigenvalues --   -2.62437  -1.63057  -1.63057  -1.59201  -0.34710
 Alpha  occ. eigenvalues --   -0.21509
 Alpha virt. eigenvalues --    0.01177   0.01269   0.01269   0.02127   0.02886
 Alpha virt. eigenvalues --    0.02889   0.02889   0.02897   0.02918   0.04307
 Alpha virt. eigenvalues --    0.04428   0.04428   0.08082   0.08202   0.08202

 Mulliken charges and spin densities:
               1          2
     1  Sc  -0.000000   1.000000
 Sum of Mulliken charges =  -0.00000   1.00000

 Dipole moment (field-independent basis, Debye):
    X=              0.0000    Y=              0.0000    Z=              0.0000  Tot=              0.0000
 Quadrupole moment (field-independent basis, Debye-Ang):
   XX=            -23.3719   YY=            -23.3719   ZZ=            -23.0798
   XY=              0.0000   XZ=              0.0000   YZ=             -0.0000

 1\1\GINC-C506-012\SP\ROCCSD(T)-Full\Gen\Sc1(2)\AANNABE\16-Feb-2018\0\\
 #P ROCCSD(T)=(maxcyc=150, Full)/Gen 5d 7f SCF=(maxcycles=300) MaxDisk=
 500GB Pop=Regular Pseudo=Read Guess=Read\\Sc\\0,2\Sc,0,0.,0.,0.\\Versi
 on=ES64L-G16RevA.03\HF=-46.1220991\MP2=-46.507009\MP3=-46.5271329\PUHF
 =-46.1220991\PMP2-0=-46.507009\MP4SDQ=-46.5266731\CCSD=-46.526912\CCSD
 (T)=-46.5423877\RMSD=3.746e-09\PG=OH [O(Sc1)]\\@

 Normal termination of Gaussian 16 at Fri Feb 16 11:06:44 2018.
