 Gaussian 16, Revision A.03,
 Gaussian 16:  ES64L-G16RevA.03 25-Dec-2016

 ----------------------------------------------------------------------
 #P ROCCSD(T)=(maxcyc=150, Full, SaveAmplitudes, ReadAmplitudes)/Gen 5d
  7f SCF=(maxcycles=300) Integral(NoXCTest) MaxDisk=500GB Pop=Regular P
 seudo=Read Guess=Read
 ----------------------------------------------------------------------

 ---
 MnO
 ---
 Symbolic Z-matrix:
 Charge =  0 Multiplicity = 6

                         Standard orientation:
 ---------------------------------------------------------------------
 Center     Atomic      Atomic             Coordinates (Angstroms)
 Number     Number       Type             X           Y           Z
 ---------------------------------------------------------------------
      1         25           0        0.000000    0.000000    0.290909
      2          8           0        0.000000    0.000000   -0.909091
 ---------------------------------------------------------------------

 SCF Done:  E(ROHF) =  -118.824980790     A.U. after   22 cycles
 E2 =    -0.9788704872D+00 EUMP2 =    -0.11980385127711D+03
 CCSD(T)
 CCSD(T)= -0.11980290570D+03

 The electronic state is 6-SG.
 Alpha  occ. eigenvalues --   -4.21158  -2.79343  -2.75249  -2.75249  -1.28936
 Alpha  occ. eigenvalues --   -0.78649  -0.78649  -0.66058  -0.59743  -0.59743
 Alpha  occ. eigenvalues --   -0.38316  -0.38316  -0.28787
 Alpha virt. eigenvalues --    0.02212   0.02424   0.02424   0.02744   0.05516
 Alpha virt. eigenvalues --    0.06004   0.06004   0.06019   0.06019   0.08094
 Alpha virt. eigenvalues --    0.08094   0.08987   0.10952   0.15181   0.18378

 Mulliken charges and spin densities:
               1          2
     1  Mn   0.992555   4.698021
     2  O   -0.992555   0.301979
 Sum of Mulliken charges =  -0.00000   5.00000

 Dipole moment (field-independent basis, Debye):
    X=              0.0000    Y=              0.0000    Z=              1.2726  Tot=              1.2726
 Quadrupole moment (field-independent basis, Debye-Ang):
   XX=            -20.2403   YY=            -20.2403   ZZ=            -22.3772
   XY=              0.0000   XZ=              0.0000   YZ=              0.0000

 \\#P ROCCSD(T)=(maxcyc=150, Full, SaveAmplitudes, ReadAmplitudes)/Gen
 8.8249808\PMP2-0=-119.8038513\CCSD=-119.7633743\CCSD(T)=-119.8029057\R
 Normal termination of Gaussian 16 at Tue Mar 13 15:52:25 2018.
