 Gaussian 16, Revision A.03,
 Gaussian 16:  ES64L-G16RevA.03 25-Dec-2016

 ----------------------------------------------------------------------
 #P ROCCSD(T)=(maxcyc=150, Full, SaveAmplitudes, ReadAmplitudes)/Gen 5d
  7f SCF=(maxcycles=300) Integral(NoXCTest) MaxDisk=500GB Pop=Regular P
 seudo=Read Guess=Read
 ----------------------------------------------------------------------

 ---
 MnH
 ---
 Symbolic Z-matrix:
 Charge =  0 Multiplicity = 7

                         Standard orientation:
 ---------------------------------------------------------------------
 Center     Atomic      Atomic             Coordinates (Angstroms)
 Number     Number       Type             X           Y           Z
 ---------------------------------------------------------------------
      1         25           0        0.000000    0.000000    0.073077
      2          1           0        0.000000    0.000000   -1.826923
 ---------------------------------------------------------------------

 SCF Done:  E(ROHF) =  -104.251225105     A.U. after   19 cycles
 E2 =    -0.6090945834D+00 EUMP2 =    -0.10486031968883D+03
 CCSD(T)
 CCSD(T)= -0.10488381302D+03

 The electronic state is 7-SG.
 Alpha  occ. eigenvalues --   -4.10769  -2.77005  -2.77005  -2.76836  -0.64982
 Alpha  occ. eigenvalues --   -0.64982  -0.64328  -0.64275  -0.64275  -0.39406
 Alpha  occ. eigenvalues --   -0.26901
 Alpha virt. eigenvalues --    0.01007   0.01007   0.02174   0.02888   0.04872
 Alpha virt. eigenvalues --    0.04872   0.05610   0.05776   0.05776   0.06195
 Alpha virt. eigenvalues --    0.06195   0.09430   0.12640   0.13792   0.17973

 Mulliken charges and spin densities:
               1          2
     1  Mn   0.376591   5.954832
     2  H   -0.376591   0.045168
 Sum of Mulliken charges =  -0.00000   6.00000

 Dipole moment (field-independent basis, Debye):
    X=              0.0000    Y=              0.0000    Z=              2.0026  Tot=              2.0026
 Quadrupole moment (field-independent basis, Debye-Ang):
   XX=            -16.2445   YY=            -16.2445   ZZ=            -27.2425
   XY=              0.0000   XZ=              0.0000   YZ=              0.0000

 \\#P ROCCSD(T)=(maxcyc=150, Full, SaveAmplitudes, ReadAmplitudes)/Gen
 4.2512251\PMP2-0=-104.8603197\CCSD=-104.8669027\CCSD(T)=-104.883813\RM
 Normal termination of Gaussian 16 at Mon Feb 26 15:29:49 2018.
