 Gaussian 16, Revision A.03,
 Gaussian 16:  ES64L-G16RevA.03 25-Dec-2016

 ----------------------------------------------------------------------
 #P ROCCSD(T)=(maxcyc=150, Full)/Gen 5d 7f SCF=(maxcycles=300) Integral
 (NoXCTest) MaxDisk=500GB Pop=Regular Pseudo=Read IOp(5/15=2) Guess=Rea
 d
 ----------------------------------------------------------------------

 ---
 ScH
 ---
 Symbolic Z-matrix:
 Charge =  0 Multiplicity = 1

                         Standard orientation:
 ---------------------------------------------------------------------
 Center     Atomic      Atomic             Coordinates (Angstroms)
 Number     Number       Type             X           Y           Z
 ---------------------------------------------------------------------
      1         21           0        0.000000    0.000000    0.090909
      2          1           0        0.000000    0.000000   -1.909091
 ---------------------------------------------------------------------

 SCF Done:  E(ROHF) =  -46.7901097261     A.U. after    9 cycles
 E2 =    -0.4264343745D+00 EUMP2 =    -0.47216544100647D+02
 CCSD(T)
 CCSD(T)= -0.47260405336D+02

 The electronic state is 1-SG.
 Alpha  occ. eigenvalues --   -2.74986  -1.68295  -1.68295  -1.68097  -0.38034
 Alpha  occ. eigenvalues --   -0.24063
 Alpha virt. eigenvalues --    0.00997   0.00997   0.01258   0.01791   0.02573
 Alpha virt. eigenvalues --    0.02573   0.02677   0.02677   0.02733   0.03688
 Alpha virt. eigenvalues --    0.03876   0.03876   0.06451   0.06451   0.07086

 Mulliken charges and spin densities:
               1          2
     1  Sc   0.366517   0.000000
     2  H   -0.366517   0.000000
 Sum of Mulliken charges =  -0.00000   0.00000

 Dipole moment (field-independent basis, Debye):
    X=              0.0000    Y=              0.0000    Z=              2.1803  Tot=              2.1803
 Quadrupole moment (field-independent basis, Debye-Ang):
   XX=            -22.7752   YY=            -22.7752   ZZ=            -28.3102
   XY=              0.0000   XZ=              0.0000   YZ=              0.0000

 P ROCCSD(T)=(maxcyc=150, Full)/Gen 5d 7f SCF=(maxcycles=300) Integral(
 MP2-0=-47.2165441\MP4SDQ=-47.2396139\CCSD=-47.2401348\CCSD(T)=-47.2604
 Normal termination of Gaussian 16 at Wed Feb 14 10:09:51 2018.
