 Gaussian 16, Revision A.03,
 Gaussian 16:  ES64L-G16RevA.03 25-Dec-2016

 ----------------------------------------------------------------------
 #P ROCCSD(T)=(maxcyc=150, Full, SaveAmplitudes, ReadAmplitudes)/Gen 5d
  7f SCF=(maxcycles=300) Integral(NoXCTest) MaxDisk=500GB Pop=Regular P
 seudo=Read Guess=Read IOp(5/15=2)
 ----------------------------------------------------------------------

 ---
 CrO
 ---
 Symbolic Z-matrix:
 Charge =  0 Multiplicity = 5

                         Standard orientation:
 ---------------------------------------------------------------------
 Center     Atomic      Atomic             Coordinates (Angstroms)
 Number     Number       Type             X           Y           Z
 ---------------------------------------------------------------------
      1         24           0        0.000000    0.000000    0.300000
      2          8           0        0.000000    0.000000   -0.900000
 ---------------------------------------------------------------------

 SCF Done:  E(ROHF) =  -101.748954791     A.U. after   28 cycles
 E2 =    -0.8878508742D+00 EUMP2 =    -0.10263680566542D+03
 CCSD(T)
 CCSD(T)= -0.10264299727D+03

 Unable to determine electronic state:  an orbital has unidentified symmetry.
 Alpha  occ. eigenvalues --   -3.75303  -2.48687  -2.44070  -2.40222  -1.26327
 Alpha  occ. eigenvalues --   -0.74734  -0.68496  -0.65150  -0.50499  -0.50398
 Alpha  occ. eigenvalues --   -0.30526  -0.26437
 Alpha virt. eigenvalues --    0.01495   0.02459   0.02776   0.02799   0.05479
 Alpha virt. eigenvalues --    0.07038   0.07661   0.07755   0.07797   0.07799
 Alpha virt. eigenvalues --    0.09607   0.10016   0.12174   0.17965   0.20755

 Mulliken charges and spin densities:
               1          2
     1  Cr   0.836637   3.723033
     2  O   -0.836637   0.276967
 Sum of Mulliken charges =  -0.00000   4.00000

 Dipole moment (field-independent basis, Debye):
    X=              0.0000    Y=              0.0000    Z=              0.3663  Tot=              0.3663
 Quadrupole moment (field-independent basis, Debye-Ang):
   XX=            -22.5835   YY=            -19.8338   ZZ=            -22.7155
   XY=              0.0000   XZ=              0.0000   YZ=              0.0000

 \\#P ROCCSD(T)=(maxcyc=150, Full, SaveAmplitudes, ReadAmplitudes)/Gen
 SD=-102.6036078\CCSD(T)=-102.6429973\RMSD=7.444e-09\PG=C*V [C*(O1Cr1)]
 Normal termination of Gaussian 16 at Mon Mar 12 14:31:16 2018.
