 Gaussian 16, Revision A.03,
 Gaussian 16:  ES64L-G16RevA.03 25-Dec-2016

 ----------------------------------------------------------------------
 #P ROCCSD(T)=(maxcyc=150, Full, SaveAmplitudes, ReadAmplitudes)/Gen 5d
  7f SCF=(maxcycles=300) Integral(NoXCTest) MaxDisk=500GB Pop=Regular P
 seudo=Read Guess=Read IOp(5/15=2)
 ----------------------------------------------------------------------

 ---
 MnO
 ---
 Symbolic Z-matrix:
 Charge =  0 Multiplicity = 6

                         Standard orientation:
 ---------------------------------------------------------------------
 Center     Atomic      Atomic             Coordinates (Angstroms)
 Number     Number       Type             X           Y           Z
 ---------------------------------------------------------------------
      1         25           0        0.000000    0.000000    0.460606
      2          8           0        0.000000    0.000000   -1.439394
 ---------------------------------------------------------------------

 SCF Done:  E(ROHF) =  -119.154538803     A.U. after   33 cycles
 E2 =    -0.8842035953D+00 EUMP2 =    -0.12003874239826D+03
 CCSD(T)
 CCSD(T)= -0.12006673458D+03

 The electronic state is 6-SG.
 Alpha  occ. eigenvalues --   -4.17541  -2.82434  -2.82434  -2.81991  -1.10308
 Alpha  occ. eigenvalues --   -0.66002  -0.66002  -0.65918  -0.65918  -0.63415
 Alpha  occ. eigenvalues --   -0.34701  -0.34701  -0.32332
 Alpha virt. eigenvalues --   -0.05354   0.01294   0.01294   0.01611   0.03801
 Alpha virt. eigenvalues --    0.06240   0.06240   0.08234   0.08312   0.08312
 Alpha virt. eigenvalues --    0.09304   0.09304   0.12666   0.13904   0.22447

 Mulliken charges and spin densities:
               1          2
     1  Mn   1.063377   4.953565
     2  O   -1.063377   0.046435
 Sum of Mulliken charges =  -0.00000   5.00000

 Dipole moment (field-independent basis, Debye):
    X=              0.0000    Y=              0.0000    Z=              9.2870  Tot=              9.2870
 Quadrupole moment (field-independent basis, Debye-Ang):
   XX=            -19.3297   YY=            -19.3297   ZZ=            -25.2203
   XY=              0.0000   XZ=              0.0000   YZ=              0.0000

 \\#P ROCCSD(T)=(maxcyc=150, Full, SaveAmplitudes, ReadAmplitudes)/Gen
 .0352821\CCSD=-120.0274153\CCSD(T)=-120.0667346\RMSD=2.971e-09\PG=C*V
 Normal termination of Gaussian 16 at Sat Mar 10 10:12:28 2018.
