 Gaussian 16, Revision A.03,
 Gaussian 16:  ES64L-G16RevA.03 25-Dec-2016

 ----------------------------------------------------------------------
 #P ROCCSD(T)=(maxcyc=150, Full, SaveAmplitudes, ReadAmplitudes)/Gen 5d
  7f SCF=(maxcycles=300) Integral(NoXCTest) MaxDisk=500GB Pop=Regular P
 seudo=Read Guess=Read IOp(5/15=2)
 ----------------------------------------------------------------------

 ---
 ScO
 ---
 Symbolic Z-matrix:
 Charge =  0 Multiplicity = 2

                         Standard orientation:
 ---------------------------------------------------------------------
 Center     Atomic      Atomic             Coordinates (Angstroms)
 Number     Number       Type             X           Y           Z
 ---------------------------------------------------------------------
      1         21           0        0.000000    0.000000    0.413793
      2          8           0        0.000000    0.000000   -1.086207
 ---------------------------------------------------------------------

 SCF Done:  E(ROHF) =  -62.0513534876     A.U. after   19 cycles
 E2 =    -0.6858128528D+00 EUMP2 =    -0.62737166340425D+02
 CCSD(T)
 CCSD(T)= -0.62763798830D+02

 The electronic state is 2-SG.
 Alpha  occ. eigenvalues --   -2.66264  -1.67244  -1.57159  -1.57159  -1.10012
 Alpha  occ. eigenvalues --   -0.47788  -0.47788  -0.44792  -0.22605
 Alpha virt. eigenvalues --    0.00596   0.00596   0.01952   0.02283   0.03703
 Alpha virt. eigenvalues --    0.03703   0.03845   0.03845   0.04122   0.04319
 Alpha virt. eigenvalues --    0.04319   0.06604   0.09799   0.09799   0.10897

 Mulliken charges and spin densities:
               1          2
     1  Sc   1.305533   0.978166
     2  O   -1.305533   0.021834
 Sum of Mulliken charges =  -0.00000   1.00000

 Dipole moment (field-independent basis, Debye):
    X=              0.0000    Y=              0.0000    Z=              2.7777  Tot=              2.7777
 Quadrupole moment (field-independent basis, Debye-Ang):
   XX=            -21.9631   YY=            -21.9631   ZZ=            -31.0721
   XY=              0.0000   XZ=              0.0000   YZ=              0.0000

 \\#P ROCCSD(T)=(maxcyc=150, Full, SaveAmplitudes, ReadAmplitudes)/Gen
 63\CCSD=-62.728459\CCSD(T)=-62.7637988\RMSD=1.678e-09\PG=C*V [C*(O1Sc1
 Normal termination of Gaussian 16 at Wed Feb 28 18:57:53 2018.
