 Gaussian 16, Revision A.03,
 Gaussian 16:  ES64L-G16RevA.03 25-Dec-2016

 ----------------------------------------------------------------------
 #P ROCCSD(T)=(maxcyc=150, Full)/Gen 5d 7f SCF=(maxcycles=300) Integral
 (NoXCTest, DKHSO) MaxDisk=500GB Pop=Regular IOp(5/15=2) Guess=Read
 ----------------------------------------------------------------------

 ---
 CrH
 ---
 Symbolic Z-matrix:
 Charge =  0 Multiplicity = 6

                         Standard orientation:
 ---------------------------------------------------------------------
 Center     Atomic      Atomic             Coordinates (Angstroms)
 Number     Number       Type             X           Y           Z
 ---------------------------------------------------------------------
      1         24           0        0.000000    0.000000    0.068000
      2          1           0        0.000000    0.000000   -1.632000
 ---------------------------------------------------------------------

 SCF Done:  E(ROHF) =  -1050.20503216     A.U. after   23 cycles
 E2 =    -0.9523011150D+00 EUMP2 =    -0.10511573332789D+04
 CCSD(T)
 CCSD(T)= -0.10511929298D+04

 The electronic state is 6-SG.
 Alpha  occ. eigenvalues -- -222.20314 -26.79597 -22.43004 -22.43004 -22.42979
 Alpha  occ. eigenvalues --   -3.66909  -2.42369  -2.42369  -2.38343  -0.54439
 Alpha  occ. eigenvalues --   -0.54439  -0.51256  -0.51256  -0.40729  -0.25997
 Alpha virt. eigenvalues --    0.01245   0.01245   0.01988   0.02376   0.04614
 Alpha virt. eigenvalues --    0.05023   0.05023   0.05338   0.05338   0.05660
 Alpha virt. eigenvalues --    0.05660   0.06805   0.09582   0.12465   0.16772

 Mulliken charges and spin densities:
               1          2
     1  Cr   0.321786   4.980291
     2  H   -0.321786   0.019709
 Sum of Mulliken charges =  -0.00000   5.00000

 Dipole moment (field-independent basis, Debye):
    X=             -0.0000    Y=             -0.0000    Z=              2.1440  Tot=              2.1440
 Quadrupole moment (field-independent basis, Debye-Ang):
   XX=            -17.3293   YY=            -17.3293   ZZ=            -24.5595
   XY=              0.0000   XZ=              0.0000   YZ=              0.0000

 \\#P ROCCSD(T)=(maxcyc=150, Full)/Gen 5d 7f SCF=(maxcycles=300) Integr
 Normal termination of Gaussian 16 at Tue Feb 13 20:01:22 2018.
