 Gaussian 16, Revision A.03,
 Gaussian 16:  ES64L-G16RevA.03 25-Dec-2016

 ----------------------------------------------------------------------
 #P ROCCSD(T)=(MaxCyc=150, Full)/Gen SCF=(maxcycle=400) Pseudo=Read Int
 egral(NoXCTest) Pop=Regular MaxDisk=500GB Guess=Read IOp(5/15=2)
 ----------------------------------------------------------------------

 ---
 ZnO
 ---
 Symbolic Z-matrix:
 Charge =  0 Multiplicity = 1

                         Standard orientation:
 ---------------------------------------------------------------------
 Center     Atomic      Atomic             Coordinates (Angstroms)
 Number     Number       Type             X           Y           Z
 ---------------------------------------------------------------------
      1         30           0        0.000000    0.000000    0.421053
      2          8           0        0.000000    0.000000   -1.578947
 ---------------------------------------------------------------------

 SCF Done:  E(ROHF) =  -241.654440691     A.U. after   11 cycles
 E2 =    -0.1377940980D+01 EUMP2 =    -0.24303238167031D+03
 CCSD(T)
 CCSD(T)= -0.24300310541D+03

 The electronic state is 1-SG.
 Alpha  occ. eigenvalues --   -5.59547  -3.88938  -3.88938  -3.88884  -1.15363
 Alpha  occ. eigenvalues --   -0.81225  -0.81225  -0.81167  -0.81167  -0.80424
 Alpha  occ. eigenvalues --   -0.44437  -0.44437  -0.34807
 Alpha virt. eigenvalues --   -0.04016   0.02252   0.02252   0.02574   0.04015
 Alpha virt. eigenvalues --    0.07280   0.07280   0.11616   0.16492   0.16749
 Alpha virt. eigenvalues --    0.17896   0.17896   0.19388   0.19388   0.23233

 Mulliken charges and spin densities:
               1          2
     1  Zn   0.653255   0.000000
     2  O   -0.653255   0.000000
 Sum of Mulliken charges =  -0.00000   0.00000

 Dipole moment (field-independent basis, Debye):
    X=              0.0000    Y=              0.0000    Z=              5.6095  Tot=              5.6095
 Quadrupole moment (field-independent basis, Debye-Ang):
   XX=            -18.6663   YY=            -18.6663   ZZ=            -21.8713
   XY=              0.0000   XZ=              0.0000   YZ=              0.0000

 P ROCCSD(T)=(MaxCyc=150, Full)/Gen SCF=(maxcycle=400) Pseudo=Read Inte
 -0=-243.0323817\MP4SDQ=-242.981935\CCSD=-242.9521204\CCSD(T)=-243.0031
 Normal termination of Gaussian 16 at Fri May  4 14:40:23 2018.
