 Gaussian 16, Revision A.03,
 Gaussian 16:  ES64L-G16RevA.03 25-Dec-2016

 ----------------------------------------------------------------------
 #P ROCCSD(T)=(MaxCyc=150, Full)/Gen SCF=(maxcycle=400) Pseudo=Read Int
 egral(NoXCTest) Pop=Regular MaxDisk=500GB Guess=Read IOp(5/15=2)
 ----------------------------------------------------------------------

 ---
 ZnO
 ---
 Symbolic Z-matrix:
 Charge =  0 Multiplicity = 1

                         Standard orientation:
 ---------------------------------------------------------------------
 Center     Atomic      Atomic             Coordinates (Angstroms)
 Number     Number       Type             X           Y           Z
 ---------------------------------------------------------------------
      1         30           0        0.000000    0.000000    0.421053
      2          8           0        0.000000    0.000000   -1.578947
 ---------------------------------------------------------------------

 SCF Done:  E(ROHF) =  -241.651277985     A.U. after   12 cycles
 E2 =    -0.1311143116D+01 EUMP2 =    -0.24296242110124D+03
 CCSD(T)
 CCSD(T)= -0.24293555149D+03

 The electronic state is 1-SG.
 Alpha  occ. eigenvalues --   -5.59590  -3.88967  -3.88967  -3.88916  -1.15399
 Alpha  occ. eigenvalues --   -0.81237  -0.81237  -0.81175  -0.81175  -0.80439
 Alpha  occ. eigenvalues --   -0.44420  -0.44420  -0.34827
 Alpha virt. eigenvalues --   -0.04032   0.02440   0.02440   0.02816   0.04441
 Alpha virt. eigenvalues --    0.08296   0.08296   0.13058   0.17325   0.21160
 Alpha virt. eigenvalues --    0.22391   0.22391   0.24794   0.24794   0.29892

 Mulliken charges and spin densities:
               1          2
     1  Zn   0.681974   0.000000
     2  O   -0.681974   0.000000
 Sum of Mulliken charges =  -0.00000   0.00000

 Dipole moment (field-independent basis, Debye):
    X=              0.0000    Y=              0.0000    Z=              5.6225  Tot=              5.6225
 Quadrupole moment (field-independent basis, Debye-Ang):
   XX=            -18.6783   YY=            -18.6783   ZZ=            -21.8682
   XY=              0.0000   XZ=              0.0000   YZ=              0.0000

 P ROCCSD(T)=(MaxCyc=150, Full)/Gen SCF=(maxcycle=400) Pseudo=Read Inte
 =-242.9624211\MP4SDQ=-242.917177\CCSD=-242.887088\CCSD(T)=-242.9355515
 Normal termination of Gaussian 16 at Fri May  4 12:21:12 2018.
