 Gaussian 16, Revision A.03,
 Gaussian 16:  ES64L-G16RevA.03 25-Dec-2016

 ----------------------------------------------------------------------
 #P ROCCSD(T)=(maxcyc=100, Full)/Gen SCF=(maxcycle=400, symm) Pseudo=Re
 ad Integral(NoXCTest) Pop=Regular MaxDisk=500GB Guess=Permute IOp(5/15
 =2)
 ----------------------------------------------------------------------

 ---
 FeH
 ---
 Symbolic Z-matrix:
 Charge =  0 Multiplicity = 4

                         Standard orientation:
 ---------------------------------------------------------------------
 Center     Atomic      Atomic             Coordinates (Angstroms)
 Number     Number       Type             X           Y           Z
 ---------------------------------------------------------------------
      1         26           0        0.000000    0.000000    0.055556
      2          1           0        0.000000    0.000000   -1.444444
 ---------------------------------------------------------------------

 SCF Done:  E(ROHF) =  -123.500657777     A.U. after   29 cycles
 E2 =    -0.7983637406D+00 EUMP2 =    -0.12429902151718D+03
 CCSD(T)
 CCSD(T)= -0.12429797203D+03

 Unable to determine electronic state:  partially filled degenerate orbitals.
 Alpha  occ. eigenvalues --   -4.38794  -2.81451  -2.80609  -2.80609  -0.50911
 Alpha  occ. eigenvalues --   -0.50911  -0.49834  -0.46457  -0.44877  -0.31661
 Alpha virt. eigenvalues --   -0.00246   0.02227   0.02227   0.02860   0.04069
 Alpha virt. eigenvalues --    0.06233   0.06806   0.06819   0.06852   0.06852
 Alpha virt. eigenvalues --    0.07720   0.07720   0.09722   0.16670   0.17913

 Mulliken charges and spin densities:
               1          2
     1  Fe   0.347717   2.998102
     2  H   -0.347717   0.001898
 Sum of Mulliken charges =  -0.00000   3.00000

 Dipole moment (field-independent basis, Debye):
    X=              0.0000    Y=              0.0000    Z=              4.1065  Tot=              4.1065
 Quadrupole moment (field-independent basis, Debye-Ang):
   XX=            -15.8466   YY=            -15.8466   ZZ=            -16.9178
   XY=              0.0000   XZ=              0.0000   YZ=              0.0000

 \\#P ROCCSD(T)=(maxcyc=100, Full)/Gen SCF=(maxcycle=400, symm) Pseudo=
 681666\CCSD(T)=-124.297972\RMSD=5.886e-09\PG=C*V [C*(H1Fe1)]\\@
 Normal termination of Gaussian 16 at Mon Feb 12 21:01:20 2018.
