 Gaussian 16, Revision A.03,
 Gaussian 16:  ES64L-G16RevA.03 25-Dec-2016

 ----------------------------------------------------------------------
 #P ROCCSD(T)=(maxcyc=100, Full)/Gen SCF=(maxcycle=400, symm) Pseudo=Re
 ad Integral(NoXCTest) Pop=Regular MaxDisk=500GB Guess=Permute IOp(5/15
 =2)
 ----------------------------------------------------------------------

 ---
 FeH
 ---
 Symbolic Z-matrix:
 Charge =  0 Multiplicity = 4

                         Standard orientation:
 ---------------------------------------------------------------------
 Center     Atomic      Atomic             Coordinates (Angstroms)
 Number     Number       Type             X           Y           Z
 ---------------------------------------------------------------------
      1         26           0        0.000000    0.000000    0.055556
      2          1           0        0.000000    0.000000   -1.444444
 ---------------------------------------------------------------------

 SCF Done:  E(ROHF) =  -123.504714724     A.U. after   32 cycles
 E2 =    -0.7630325613D+00 EUMP2 =    -0.12426774728479D+03
 CCSD(T)
 CCSD(T)= -0.12426877843D+03

 Unable to determine electronic state:  an orbital has unidentified symmetry.
 Alpha  occ. eigenvalues --   -4.38957  -2.81428  -2.80584  -2.80584  -0.50914
 Alpha  occ. eigenvalues --   -0.50914  -0.49833  -0.46449  -0.44875  -0.31662
 Alpha virt. eigenvalues --   -0.00224   0.02458   0.02458   0.03131   0.04321
 Alpha virt. eigenvalues --    0.08447   0.08447   0.09602   0.10264   0.10302
 Alpha virt. eigenvalues --    0.10384   0.10384   0.10668   0.17102   0.24135

 Mulliken charges and spin densities:
               1          2
     1  Fe   0.419719   2.996214
     2  H   -0.419719   0.003786
 Sum of Mulliken charges =   0.00000   3.00000

 Dipole moment (field-independent basis, Debye):
    X=              0.0000    Y=              0.0000    Z=              4.1085  Tot=              4.1085
 Quadrupole moment (field-independent basis, Debye-Ang):
   XX=            -15.8599   YY=            -15.8599   ZZ=            -16.9053
   XY=              0.0000   XZ=              0.0000   YZ=              0.0000

 \\#P ROCCSD(T)=(maxcyc=100, Full)/Gen SCF=(maxcycle=400, symm) Pseudo=
 2405165\CCSD(T)=-124.2687784\RMSD=9.191e-09\PG=C*V [C*(H1Fe1)]\\@
 Normal termination of Gaussian 16 at Mon Feb 12 20:23:30 2018.
