 Gaussian 16, Revision A.03,
 Gaussian 16:  ES64L-G16RevA.03 25-Dec-2016

 ----------------------------------------------------------------------
 #P ROCCSD(T)=(maxcyc=100, Full)/Gen SCF=(maxcycle=400, symm) Pseudo=Re
 ad Integral(NoXCTest) Pop=Regular MaxDisk=500GB Guess=Permute IOp(5/15
 =2)
 ----------------------------------------------------------------------

 ---
 FeH
 ---
 Symbolic Z-matrix:
 Charge =  0 Multiplicity = 4

                         Standard orientation:
 ---------------------------------------------------------------------
 Center     Atomic      Atomic             Coordinates (Angstroms)
 Number     Number       Type             X           Y           Z
 ---------------------------------------------------------------------
      1         26           0        0.000000    0.000000    0.055556
      2          1           0        0.000000    0.000000   -1.444444
 ---------------------------------------------------------------------

 SCF Done:  E(ROHF) =  -123.506032019     A.U. after   40 cycles
 E2 =    -0.8124816412D+00 EUMP2 =    -0.12431851365982D+03
 CCSD(T)
 CCSD(T)= -0.12431542719D+03

 Unable to determine electronic state:  an orbital has unidentified symmetry.
 Alpha  occ. eigenvalues --   -4.38904  -2.81408  -2.80566  -2.80566  -0.50912
 Alpha  occ. eigenvalues --   -0.50912  -0.49834  -0.46460  -0.44882  -0.31664
 Alpha virt. eigenvalues --   -0.00278   0.02160   0.02160   0.02552   0.03509
 Alpha virt. eigenvalues --    0.05799   0.06233   0.06243   0.06331   0.06331
 Alpha virt. eigenvalues --    0.07373   0.07373   0.08512   0.13023   0.16882

 Mulliken charges and spin densities:
               1          2
     1  Fe   0.301604   2.994748
     2  H   -0.301604   0.005252
 Sum of Mulliken charges =  -0.00000   3.00000

 Dipole moment (field-independent basis, Debye):
    X=              0.0000    Y=              0.0000    Z=              4.1051  Tot=              4.1051
 Quadrupole moment (field-independent basis, Debye-Ang):
   XX=            -15.8435   YY=            -15.8435   ZZ=            -16.9170
   XY=              0.0000   XZ=              0.0000   YZ=              0.0000

 \\#P ROCCSD(T)=(maxcyc=100, Full)/Gen SCF=(maxcycle=400, symm) Pseudo=
 50865\CCSD(T)=-124.3154272\RMSD=3.618e-09\PG=C*V [C*(H1Fe1)]\\@
 Normal termination of Gaussian 16 at Mon Feb 12 22:44:03 2018.
