 Gaussian 16, Revision A.03,
 Gaussian 16:  ES64L-G16RevA.03 25-Dec-2016

 ----------------------------------------------------------------------
 #P ROCCSD(T)=(maxcyc=150, Full)/Gen 5d 7f SCF=(maxcycles=300, NoVarAcc
 , VShift=300) MaxDisk=100GB Pop=Regular Pseudo=Read Guess=Read
 ----------------------------------------------------------------------

 --
 Ti
 --
 Symbolic Z-matrix:
 Charge =  0 Multiplicity = 3

                         Standard orientation:
 ---------------------------------------------------------------------
 Center     Atomic      Atomic             Coordinates (Angstroms)
 Number     Number       Type             X           Y           Z
 ---------------------------------------------------------------------
      1         22           0        0.000000    0.000000    0.000000
 ---------------------------------------------------------------------

 SCF Done:  E(ROHF) =  -57.6156749501     A.U. after   17 cycles
 E2 =    -0.4299170026D+00 EUMP2 =    -0.58045591952735D+02
 CCSD(T)
 CCSD(T)= -0.58081457339D+02

 Unable to determine electronic state:  an orbital has unidentified symmetry.
 Alpha  occ. eigenvalues --   -3.00515  -1.89071  -1.89071  -1.89071  -0.43965
 Alpha  occ. eigenvalues --   -0.43965  -0.23010
 Alpha virt. eigenvalues --    0.01378   0.01378   0.01378   0.02237   0.03898
 Alpha virt. eigenvalues --    0.03898   0.03898   0.03945   0.03945   0.04817
 Alpha virt. eigenvalues --    0.04817   0.04817   0.10323   0.10323   0.10323

 Mulliken charges and spin densities:
               1          2
     1  Ti  -0.000000   2.000000
 Sum of Mulliken charges =  -0.00000   2.00000

 Dipole moment (field-independent basis, Debye):
    X=             -0.0000    Y=             -0.0000    Z=              0.0000  Tot=              0.0000
 Quadrupole moment (field-independent basis, Debye-Ang):
   XX=            -21.9400   YY=            -21.9400   ZZ=            -21.9400
   XY=              0.0000   XZ=              0.0000   YZ=              0.0000

 1\1\GINC-C401-061\SP\ROCCSD(T)-Full\Gen\Ti1(3)\AANNABE\13-Mar-2018\0\\
 #P ROCCSD(T)=(maxcyc=150, Full)/Gen 5d 7f SCF=(maxcycles=300, NoVarAcc
 , VShift=300) MaxDisk=100GB Pop=Regular Pseudo=Read Guess=Read\\Ti\\0,
 3\Ti,0,0.,0.,0.\\Version=ES64L-G16RevA.03\HF=-57.615675\MP2=-58.045592
 \MP3=-58.0650334\PUHF=-57.615675\PMP2-0=-58.045592\MP4SDQ=-58.0649333\
 CCSD=-58.0653027\CCSD(T)=-58.0814573\RMSD=5.301e-09\PG=OH [O(Ti1)]\\@

 Normal termination of Gaussian 16 at Tue Mar 13 12:47:51 2018.
