 Gaussian 16, Revision A.03,
 Gaussian 16:  ES64L-G16RevA.03 25-Dec-2016

 ----------------------------------------------------------------------
 #P ROCCSD(T)=(maxcyc=150, Full)/Gen 5d 7f SCF=(maxcycles=300) Integral
 (NoXCTest) MaxDisk=500GB Pop=Regular Pseudo=Read IOp(5/15=2) Guess=Rea
 d
 ----------------------------------------------------------------------

 ---
 ScH
 ---
 Symbolic Z-matrix:
 Charge =  0 Multiplicity = 1

                         Standard orientation:
 ---------------------------------------------------------------------
 Center     Atomic      Atomic             Coordinates (Angstroms)
 Number     Number       Type             X           Y           Z
 ---------------------------------------------------------------------
      1         21           0        0.000000    0.000000    0.100000
      2          1           0        0.000000    0.000000   -2.100000
 ---------------------------------------------------------------------

 SCF Done:  E(ROHF) =  -46.5761181609     A.U. after   12 cycles
 E2 =    -0.4025630791D+00 EUMP2 =    -0.46978681240076D+02
 CCSD(T)
 CCSD(T)= -0.47028082633D+02

 The electronic state is 1-SG.
 Alpha  occ. eigenvalues --   -2.72958  -1.69642  -1.69642  -1.69447  -0.35684
 Alpha  occ. eigenvalues --   -0.24624
 Alpha virt. eigenvalues --    0.00874   0.00874   0.01019   0.02317   0.03592
 Alpha virt. eigenvalues --    0.03710   0.03710   0.03948   0.03948   0.04018
 Alpha virt. eigenvalues --    0.04191   0.04191   0.06758   0.06758   0.07948

 Mulliken charges and spin densities:
               1          2
     1  Sc   0.303515   0.000000
     2  H   -0.303515   0.000000
 Sum of Mulliken charges =  -0.00000   0.00000

 Dipole moment (field-independent basis, Debye):
    X=              0.0000    Y=              0.0000    Z=              2.9959  Tot=              2.9959
 Quadrupole moment (field-independent basis, Debye-Ang):
   XX=            -22.9113   YY=            -22.9113   ZZ=            -30.1007
   XY=              0.0000   XZ=              0.0000   YZ=              0.0000

 P ROCCSD(T)=(maxcyc=150, Full)/Gen 5d 7f SCF=(maxcycles=300) Integral(
 PMP2-0=-46.9786812\MP4SDQ=-47.0078628\CCSD=-47.0084578\CCSD(T)=-47.028
 Normal termination of Gaussian 16 at Wed Feb 14 11:38:13 2018.
