 Gaussian 16, Revision A.03,
 Gaussian 16:  ES64L-G16RevA.03 25-Dec-2016

 ----------------------------------------------------------------------
 #P ROCCSD(T)=(maxcyc=150, Full, SaveAmplitudes, ReadAmplitudes)/Gen 5d
  7f SCF=(maxcycles=300, VShift=400) Integral(NoXCTest) MaxDisk=500GB P
 op=Full Pseudo=Read Guess=Read
 ----------------------------------------------------------------------

 ---
 MnH
 ---
 Symbolic Z-matrix:
 Charge =  0 Multiplicity = 7

                         Standard orientation:
 ---------------------------------------------------------------------
 Center     Atomic      Atomic             Coordinates (Angstroms)
 Number     Number       Type             X           Y           Z
 ---------------------------------------------------------------------
      1         25           0        0.000000    0.000000    0.057692
      2          1           0        0.000000    0.000000   -1.442308
 ---------------------------------------------------------------------

 SCF Done:  E(ROHF) =  -103.782428529     A.U. after   23 cycles
 E2 =    -0.6082996511D+00 EUMP2 =    -0.10439072817981D+03
 CCSD(T)
 CCSD(T)= -0.10441108385D+03

 The electronic state is 7-SG.
 Alpha  occ. eigenvalues --   -4.14358  -2.76344  -2.76321  -2.76321  -0.64734
 Alpha  occ. eigenvalues --   -0.63852  -0.63852  -0.63285  -0.63285  -0.41830
 Alpha  occ. eigenvalues --   -0.25304
 Alpha virt. eigenvalues --    0.01287   0.01287   0.02066   0.03016   0.05145
 Alpha virt. eigenvalues --    0.05145   0.05680   0.05824   0.05824   0.06192
 Alpha virt. eigenvalues --    0.06192   0.08694   0.13820   0.14484   0.18025

 Mulliken charges and spin densities:
               1          2
     1  Mn   0.373418   5.939131
     2  H   -0.373418   0.060869
 Sum of Mulliken charges =  -0.00000   6.00000

 Dipole moment (field-independent basis, Debye):
    X=              0.0000    Y=              0.0000    Z=              0.6168  Tot=              0.6168
 Quadrupole moment (field-independent basis, Debye-Ang):
   XX=            -16.0452   YY=            -16.0452   ZZ=            -25.6827
   XY=              0.0000   XZ=              0.0000   YZ=              0.0000

 \\#P ROCCSD(T)=(maxcyc=150, Full, SaveAmplitudes, ReadAmplitudes)/Gen
 \PUHF=-103.7824285\PMP2-0=-104.3907282\CCSD=-104.3940208\CCSD(T)=-104.
 Normal termination of Gaussian 16 at Sat May  5 08:43:48 2018.
