 Gaussian 16, Revision A.03,
 Gaussian 16:  ES64L-G16RevA.03 25-Dec-2016

 ----------------------------------------------------------------------
 #P ROCCSD(T)=(maxcyc=150, Full, SaveAmplitudes, ReadAmplitudes)/Gen 5d
  7f SCF=(maxcycles=300, VShift=400) Integral(NoXCTest) MaxDisk=500GB P
 op=Full Pseudo=Read Guess=Read IOp(5/15=2)
 ----------------------------------------------------------------------

 ---
 MnO
 ---
 Symbolic Z-matrix:
 Charge =  0 Multiplicity = 6

                         Standard orientation:
 ---------------------------------------------------------------------
 Center     Atomic      Atomic             Coordinates (Angstroms)
 Number     Number       Type             X           Y           Z
 ---------------------------------------------------------------------
      1         25           0        0.000000    0.000000    0.339394
      2          8           0        0.000000    0.000000   -1.060606
 ---------------------------------------------------------------------

 SCF Done:  E(ROHF) =  -118.832755547     A.U. after   57 cycles
 E2 =    -0.9313559012D+00 EUMP2 =    -0.11976411144857D+03
 CCSD(T)
 CCSD(T)= -0.11977483916D+03

 The electronic state is 6-SG.
 Alpha  occ. eigenvalues --   -4.13739  -2.75671  -2.75671  -2.73607  -1.24352
 Alpha  occ. eigenvalues --   -0.70573  -0.70573  -0.63262  -0.63262  -0.55812
 Alpha  occ. eigenvalues --   -0.41073  -0.41073  -0.31756
 Alpha virt. eigenvalues --    0.01200   0.02186   0.02186   0.03338   0.05182
 Alpha virt. eigenvalues --    0.07108   0.07108   0.08703   0.08703   0.09368
 Alpha virt. eigenvalues --    0.09368   0.09500   0.12567   0.15509   0.23701

 Mulliken charges and spin densities:
               1          2
     1  Mn   0.917752   4.796589
     2  O   -0.917752   0.203411
 Sum of Mulliken charges =  -0.00000   5.00000

 Dipole moment (field-independent basis, Debye):
    X=              0.0000    Y=              0.0000    Z=              4.2232  Tot=              4.2232
 Quadrupole moment (field-independent basis, Debye-Ang):
   XX=            -19.6623   YY=            -19.6623   ZZ=            -23.1842
   XY=              0.0000   XZ=              0.0000   YZ=              0.0000

 \\#P ROCCSD(T)=(maxcyc=150, Full, SaveAmplitudes, ReadAmplitudes)/Gen
 4SDQ=-119.7509313\CCSD=-119.7333078\CCSD(T)=-119.7748392\RMSD=8.553e-0
 Normal termination of Gaussian 16 at Sat May  5 07:10:28 2018.
