 Gaussian 16, Revision A.03,
 Gaussian 16:  ES64L-G16RevA.03 25-Dec-2016

 ----------------------------------------------------------------------
 #P ROCCSD(T)=(maxcyc=150, Full)/Gen 5d 7f SCF=(maxcycles=300, NoVarAcc
 , VShift=400) MaxDisk=100GB Pop=Regular Pseudo=Read Guess=Read IOp(5/1
 5=2)
 ----------------------------------------------------------------------

 --
 Cr
 --
 Symbolic Z-matrix:
 Charge =  0 Multiplicity = 7

                         Standard orientation:
 ---------------------------------------------------------------------
 Center     Atomic      Atomic             Coordinates (Angstroms)
 Number     Number       Type             X           Y           Z
 ---------------------------------------------------------------------
      1         24           0        0.000000    0.000000    0.000000
 ---------------------------------------------------------------------

 SCF Done:  E(ROHF) =  -86.4727541794     A.U. after   36 cycles
 E2 =    -0.5679392319D+00 EUMP2 =    -0.87040693411288D+02
 CCSD(T)
 CCSD(T)= -0.87049103301D+02

 The electronic state is 7-A1G.
 Alpha  occ. eigenvalues --   -3.59561  -2.29020  -2.29020  -2.29020  -0.37399
 Alpha  occ. eigenvalues --   -0.37399  -0.37399  -0.37399  -0.37399  -0.22548
 Alpha virt. eigenvalues --    0.01710   0.01710   0.01710   0.02263   0.05108
 Alpha virt. eigenvalues --    0.05108   0.05108   0.05108   0.05108   0.05774
 Alpha virt. eigenvalues --    0.05774   0.05774   0.11294   0.16221   0.16221

 Mulliken charges and spin densities:
               1          2
     1  Cr  -0.000000   6.000000
 Sum of Mulliken charges =  -0.00000   6.00000

 Dipole moment (field-independent basis, Debye):
    X=              0.0000    Y=              0.0000    Z=              0.0000  Tot=              0.0000
 Quadrupole moment (field-independent basis, Debye-Ang):
   XX=            -16.2751   YY=            -16.2751   ZZ=            -16.2751
   XY=              0.0000   XZ=             -0.0000   YZ=             -0.0000

 1\1\GINC-C506-003\SP\ROCCSD(T)-Full\Gen\Cr1(7)\AANNABE\04-Apr-2018\0\\
 #P ROCCSD(T)=(maxcyc=150, Full)/Gen 5d 7f SCF=(maxcycles=300, NoVarAcc
 , VShift=400) MaxDisk=100GB Pop=Regular Pseudo=Read Guess=Read IOp(5/1
 5=2)\\Cr\\0,7\Cr,0,0.,0.,0.\\Version=ES64L-G16RevA.03\State=7-A1G\HF=-
 86.4727542\MP2=-87.0406934\MP3=-87.0291959\PUHF=-86.4727542\PMP2-0=-87
 .0406934\MP4SDQ=-87.0325877\CCSD=-87.0315318\CCSD(T)=-87.0491033\RMSD=
 5.494e-09\PG=OH [O(Cr1)]\\@

 Normal termination of Gaussian 16 at Wed Apr  4 16:00:22 2018.
