 Gaussian 16, Revision A.03,
 Gaussian 16:  ES64L-G16RevA.03 25-Dec-2016

 ----------------------------------------------------------------------
 #P ROCCSD(T)=(maxcyc=150, Full)/Gen 5d 7f SCF=(maxcycles=300) Integral
 (NoXCTest) MaxDisk=500GB Pop=Regular Pseudo=Read IOp(5/15=2) Guess=Rea
 d
 ----------------------------------------------------------------------

 ---
 ScH
 ---
 Symbolic Z-matrix:
 Charge =  0 Multiplicity = 1

                         Standard orientation:
 ---------------------------------------------------------------------
 Center     Atomic      Atomic             Coordinates (Angstroms)
 Number     Number       Type             X           Y           Z
 ---------------------------------------------------------------------
      1         21           0        0.000000    0.000000    0.095455
      2          1           0        0.000000    0.000000   -2.004545
 ---------------------------------------------------------------------

 SCF Done:  E(ROHF) =  -46.5836552208     A.U. after   12 cycles
 E2 =    -0.4030795803D+00 EUMP2 =    -0.46986734801103D+02
 CCSD(T)
 CCSD(T)= -0.47034918812D+02

 The electronic state is 1-SG.
 Alpha  occ. eigenvalues --   -2.72278  -1.69001  -1.69001  -1.68798  -0.36811
 Alpha  occ. eigenvalues --   -0.24281
 Alpha virt. eigenvalues --    0.00956   0.00956   0.01185   0.02300   0.03592
 Alpha virt. eigenvalues --    0.03748   0.03748   0.03943   0.03943   0.04198
 Alpha virt. eigenvalues --    0.04283   0.04283   0.07110   0.07110   0.08224

 Mulliken charges and spin densities:
               1          2
     1  Sc   0.307528  -0.000000
     2  H   -0.307528  -0.000000
 Sum of Mulliken charges =   0.00000  -0.00000

 Dipole moment (field-independent basis, Debye):
    X=              0.0000    Y=              0.0000    Z=              2.5877  Tot=              2.5877
 Quadrupole moment (field-independent basis, Debye-Ang):
   XX=            -22.9359   YY=            -22.9359   ZZ=            -29.2146
   XY=              0.0000   XZ=              0.0000   YZ=              0.0000

 P ROCCSD(T)=(maxcyc=150, Full)/Gen 5d 7f SCF=(maxcycles=300) Integral(
 PMP2-0=-46.9867348\MP4SDQ=-47.015365\CCSD=-47.0157146\CCSD(T)=-47.0349
 Normal termination of Gaussian 16 at Wed Feb 14 09:53:02 2018.
