 Gaussian 16, Revision A.03,
 Gaussian 16:  ES64L-G16RevA.03 25-Dec-2016

 ----------------------------------------------------------------------
 #P ROCCSD(T)=(maxcyc=150, Full)/Gen 5d 7f SCF=(maxcycles=300) Integral
 (NoXCTest) MaxDisk=500GB Pop=Regular Pseudo=Read IOp(5/15=2) Guess=Rea
 d
 ----------------------------------------------------------------------

 ---
 ScH
 ---
 Symbolic Z-matrix:
 Charge =  0 Multiplicity = 1

                         Standard orientation:
 ---------------------------------------------------------------------
 Center     Atomic      Atomic             Coordinates (Angstroms)
 Number     Number       Type             X           Y           Z
 ---------------------------------------------------------------------
      1         21           0        0.000000    0.000000    0.054545
      2          1           0        0.000000    0.000000   -1.145455
 ---------------------------------------------------------------------

 SCF Done:  E(ROHF) =  -46.6708805011     A.U. after   12 cycles
 E2 =    -0.4371976945D+00 EUMP2 =    -0.47108078195625D+02
 CCSD(T)
 CCSD(T)= -0.47145752685D+02

 The electronic state is 1-SG.
 Alpha  occ. eigenvalues --   -2.67858  -1.62871  -1.58303  -1.58303  -0.46821
 Alpha  occ. eigenvalues --   -0.21477
 Alpha virt. eigenvalues --    0.01309   0.01309   0.01398   0.01983   0.02884
 Alpha virt. eigenvalues --    0.02884   0.02898   0.02904   0.02904   0.04329
 Alpha virt. eigenvalues --    0.04442   0.04442   0.08057   0.08254   0.08254

 Mulliken charges and spin densities:
               1          2
     1  Sc   0.223665   0.000000
     2  H   -0.223665   0.000000
 Sum of Mulliken charges =  -0.00000   0.00000

 Dipole moment (field-independent basis, Debye):
    X=              0.0000    Y=              0.0000    Z=              0.7228  Tot=              0.7228
 Quadrupole moment (field-independent basis, Debye-Ang):
   XX=            -23.6418   YY=            -23.6418   ZZ=            -22.6041
   XY=              0.0000   XZ=              0.0000   YZ=              0.0000

 P ROCCSD(T)=(maxcyc=150, Full)/Gen 5d 7f SCF=(maxcycles=300) Integral(
 MP2-0=-47.1080782\MP4SDQ=-47.1276187\CCSD=-47.1272018\CCSD(T)=-47.1457
 Normal termination of Gaussian 16 at Tue Feb 13 19:07:17 2018.
