 Gaussian 16, Revision A.03,
 Gaussian 16:  ES64L-G16RevA.03 25-Dec-2016

 ----------------------------------------------------------------------
 #P ROCCSD(T)=(maxcyc=150, Full)/Gen 5d 7f SCF=(maxcycles=300) Integral
 (NoXCTest) MaxDisk=500GB Pop=Regular Pseudo=Read Guess=Read
 ----------------------------------------------------------------------

 ---
 CrH
 ---
 Symbolic Z-matrix:
 Charge =  0 Multiplicity = 6

                         Standard orientation:
 ---------------------------------------------------------------------
 Center     Atomic      Atomic             Coordinates (Angstroms)
 Number     Number       Type             X           Y           Z
 ---------------------------------------------------------------------
      1         24           0        0.000000    0.000000    0.088000
      2          1           0        0.000000    0.000000   -2.112000
 ---------------------------------------------------------------------

 SCF Done:  E(ROHF) =  -86.6715562797     A.U. after   22 cycles
 E2 =    -0.5508260017D+00 EUMP2 =    -0.87222382281382D+02
 CCSD(T)
 CCSD(T)= -0.87239563440D+02

 The electronic state is 6-SG.
 Alpha  occ. eigenvalues --   -3.77059  -2.52527  -2.52527  -2.47476  -0.59592
 Alpha  occ. eigenvalues --   -0.59592  -0.55942  -0.55942  -0.36206  -0.27225
 Alpha virt. eigenvalues --    0.00739   0.00739   0.01609   0.02402   0.04134
 Alpha virt. eigenvalues --    0.04363   0.04363   0.04833   0.04833   0.05240
 Alpha virt. eigenvalues --    0.05240   0.05990   0.08675   0.10666   0.14348

 Mulliken charges and spin densities:
               1          2
     1  Cr   0.356572   4.964402
     2  H   -0.356572   0.035598
 Sum of Mulliken charges =  -0.00000   5.00000

 Dipole moment (field-independent basis, Debye):
    X=              0.0000    Y=              0.0000    Z=              3.6347  Tot=              3.6347
 Quadrupole moment (field-independent basis, Debye-Ang):
   XX=            -17.4362   YY=            -17.4361   ZZ=            -28.8523
   XY=              0.0000   XZ=              0.0000   YZ=              0.0000

 \\#P ROCCSD(T)=(maxcyc=150, Full)/Gen 5d 7f SCF=(maxcycles=300) Integr
 7.2223823\MP4SDQ=-87.2359599\CCSD=-87.2258002\CCSD(T)=-87.2395634\RMSD
 Normal termination of Gaussian 16 at Tue Feb 13 20:53:53 2018.
