 Gaussian 16, Revision A.03,
 Gaussian 16:  ES64L-G16RevA.03 25-Dec-2016

 ----------------------------------------------------------------------
 #P ROCCSD(T)=(maxcyc=150, Full)/Gen 5d 7f SCF=(maxcycles=300, NoVarAcc
 , VShift=300) MaxDisk=100GB Pop=Regular Pseudo=Read Guess=Read
 ----------------------------------------------------------------------

 --
 Ti
 --
 Symbolic Z-matrix:
 Charge =  0 Multiplicity = 3

                         Standard orientation:
 ---------------------------------------------------------------------
 Center     Atomic      Atomic             Coordinates (Angstroms)
 Number     Number       Type             X           Y           Z
 ---------------------------------------------------------------------
      1         22           0        0.000000    0.000000    0.000000
 ---------------------------------------------------------------------

 SCF Done:  E(ROHF) =  -57.6092024598     A.U. after   17 cycles
 E2 =    -0.4121652268D+00 EUMP2 =    -0.58021367686601D+02
 CCSD(T)
 CCSD(T)= -0.58058960822D+02

 Unable to determine electronic state:  an orbital has unidentified symmetry.
 Alpha  occ. eigenvalues --   -2.99601  -1.89405  -1.89405  -1.89405  -0.44038
 Alpha  occ. eigenvalues --   -0.44038  -0.22969
 Alpha virt. eigenvalues --    0.01437   0.01437   0.01437   0.02397   0.05302
 Alpha virt. eigenvalues --    0.05302   0.05302   0.05365   0.05365   0.05365
 Alpha virt. eigenvalues --    0.05461   0.05461   0.12263   0.12263   0.12263

 Mulliken charges and spin densities:
               1          2
     1  Ti  -0.000000   2.000000
 Sum of Mulliken charges =  -0.00000   2.00000

 Dipole moment (field-independent basis, Debye):
    X=              0.0000    Y=             -0.0000    Z=             -0.0000  Tot=              0.0000
 Quadrupole moment (field-independent basis, Debye-Ang):
   XX=            -21.9822   YY=            -21.9822   ZZ=            -21.9822
   XY=              0.0000   XZ=              0.0000   YZ=              0.0000

 1\1\GINC-C424-032\SP\ROCCSD(T)-Full\Gen\Ti1(3)\AANNABE\13-Mar-2018\0\\
 #P ROCCSD(T)=(maxcyc=150, Full)/Gen 5d 7f SCF=(maxcycles=300, NoVarAcc
 , VShift=300) MaxDisk=100GB Pop=Regular Pseudo=Read Guess=Read\\Ti\\0,
 3\Ti,0,0.,0.,0.\\Version=ES64L-G16RevA.03\HF=-57.6092025\MP2=-58.02136
 77\MP3=-58.0428033\PUHF=-57.6092025\PMP2-0=-58.0213677\MP4SDQ=-58.0432
 049\CCSD=-58.0436202\CCSD(T)=-58.0589608\RMSD=7.734e-09\PG=OH [O(Ti1)]
 \\@

 Normal termination of Gaussian 16 at Tue Mar 13 12:22:39 2018.
