 Gaussian 16, Revision A.03,
 Gaussian 16:  ES64L-G16RevA.03 25-Dec-2016

 ----------------------------------------------------------------------
 #P ROCCSD(T)=(maxcyc=150, Full)/Gen 5d 7f SCF=(maxcycles=300) Integral
 (NoXCTest) MaxDisk=500GB Pop=Regular Pseudo=Read Guess=Read
 ----------------------------------------------------------------------

 ---
 MnH
 ---
 Symbolic Z-matrix:
 Charge =  0 Multiplicity = 7

                         Standard orientation:
 ---------------------------------------------------------------------
 Center     Atomic      Atomic             Coordinates (Angstroms)
 Number     Number       Type             X           Y           Z
 ---------------------------------------------------------------------
      1         25           0        0.000000    0.000000    0.057692
      2          1           0        0.000000    0.000000   -1.442308
 ---------------------------------------------------------------------

 SCF Done:  E(ROHF) =  -104.044195127     A.U. after   21 cycles
 E2 =    -0.6028941528D+00 EUMP2 =    -0.10464708928003D+03
 CCSD(T)
 CCSD(T)= -0.10466803703D+03

 The electronic state is 7-SG.
 Alpha  occ. eigenvalues --   -4.15667  -2.80286  -2.80286  -2.80275  -0.64686
 Alpha  occ. eigenvalues --   -0.63800  -0.63800  -0.63220  -0.63220  -0.41789
 Alpha  occ. eigenvalues --   -0.25368
 Alpha virt. eigenvalues --    0.01273   0.01273   0.02067   0.03015   0.05123
 Alpha virt. eigenvalues --    0.05123   0.05681   0.05825   0.05825   0.06191
 Alpha virt. eigenvalues --    0.06191   0.08695   0.13819   0.14495   0.18015

 Mulliken charges and spin densities:
               1          2
     1  Mn   0.374453   5.940030
     2  H   -0.374453   0.059970
 Sum of Mulliken charges =  -0.00000   6.00000

 Dipole moment (field-independent basis, Debye):
    X=              0.0000    Y=              0.0000    Z=              0.6149  Tot=              0.6149
 Quadrupole moment (field-independent basis, Debye-Ang):
   XX=            -16.0270   YY=            -16.0270   ZZ=            -25.6525
   XY=              0.0000   XZ=              0.0000   YZ=              0.0000

 \\#P ROCCSD(T)=(maxcyc=150, Full)/Gen 5d 7f SCF=(maxcycles=300) Integr
 0=-104.6470893\MP4SDQ=-104.6503752\CCSD=-104.6513206\CCSD(T)=-104.6680
 Normal termination of Gaussian 16 at Tue Feb 13 03:10:06 2018.
