 Gaussian 16, Revision A.03,
 Gaussian 16:  ES64L-G16RevA.03 25-Dec-2016

 ----------------------------------------------------------------------
 #P ROCCSD(T)=(MaxCyc=150, Full)/Gen SCF=(maxcycle=400) Pseudo=Read Int
 egral(NoXCTest) Pop=Regular MaxDisk=500GB Guess=Read IOp(5/15=2)
 ----------------------------------------------------------------------

 ---
 NiO
 ---
 Symbolic Z-matrix:
 Charge =  0 Multiplicity = 3

                         Standard orientation:
 ---------------------------------------------------------------------
 Center     Atomic      Atomic             Coordinates (Angstroms)
 Number     Number       Type             X           Y           Z
 ---------------------------------------------------------------------
      1         28           0        0.000000    0.000000    0.377778
      2          8           0        0.000000    0.000000   -1.322222
 ---------------------------------------------------------------------

 SCF Done:  E(ROHF) =  -185.648840321     A.U. after   19 cycles
 E2 =    -0.1215123582D+01 EUMP2 =    -0.18686396390253D+03
 CCSD(T)
 CCSD(T)= -0.18689177002D+03

 The electronic state is 3-SG.
 Alpha  occ. eigenvalues --   -5.19894  -3.57115  -3.48772  -3.48772  -1.15697
 Alpha  occ. eigenvalues --   -0.81438  -0.81438  -0.75282  -0.72553  -0.72553
 Alpha  occ. eigenvalues --   -0.38152  -0.38152  -0.36533
 Alpha virt. eigenvalues --   -0.05522   0.01773   0.01773   0.01861   0.03879
 Alpha virt. eigenvalues --    0.06746   0.06746   0.07584   0.07957   0.07957
 Alpha virt. eigenvalues --    0.09003   0.09003   0.12643   0.14908   0.21737

 Mulliken charges and spin densities:
               1          2
     1  Ni   0.987252   1.929966
     2  O   -0.987252   0.070034
 Sum of Mulliken charges =  -0.00000   2.00000

 Dipole moment (field-independent basis, Debye):
    X=              0.0000    Y=              0.0000    Z=              8.1215  Tot=              8.1215
 Quadrupole moment (field-independent basis, Debye-Ang):
   XX=            -18.4468   YY=            -18.4468   ZZ=            -21.6612
   XY=              0.0000   XZ=              0.0000   YZ=              0.0000

 \\#P ROCCSD(T)=(MaxCyc=150, Full)/Gen SCF=(maxcycle=400) Pseudo=Read I
 PMP2-0=-186.8639639\MP4SDQ=-186.8300198\CCSD=-186.8238629\CCSD(T)=-186
 Normal termination of Gaussian 16 at Tue Mar 27 13:40:02 2018.
