 Gaussian 16, Revision A.03,
 Gaussian 16:  ES64L-G16RevA.03 25-Dec-2016

 ----------------------------------------------------------------------
 #P ROCCSD(T)=(MaxCyc=150, Full)/Gen SCF=(maxcycle=400) Pseudo=Read Int
 egral(NoXCTest) Pop=Regular MaxDisk=500GB Guess=Read IOp(5/15=2)
 ----------------------------------------------------------------------

 ---
 NiO
 ---
 Symbolic Z-matrix:
 Charge =  0 Multiplicity = 3

                         Standard orientation:
 ---------------------------------------------------------------------
 Center     Atomic      Atomic             Coordinates (Angstroms)
 Number     Number       Type             X           Y           Z
 ---------------------------------------------------------------------
      1         28           0        0.000000    0.000000    0.377778
      2          8           0        0.000000    0.000000   -1.322222
 ---------------------------------------------------------------------

 SCF Done:  E(ROHF) =  -185.645090626     A.U. after   21 cycles
 E2 =    -0.1158183494D+01 EUMP2 =    -0.18680327412003D+03
 CCSD(T)
 CCSD(T)= -0.18683301521D+03

 The electronic state is 3-SG.
 Alpha  occ. eigenvalues --   -5.19899  -3.57134  -3.48785  -3.48785  -1.15751
 Alpha  occ. eigenvalues --   -0.81442  -0.81442  -0.75289  -0.72554  -0.72554
 Alpha  occ. eigenvalues --   -0.38140  -0.38140  -0.36548
 Alpha virt. eigenvalues --   -0.05533   0.02127   0.02127   0.02129   0.04298
 Alpha virt. eigenvalues --    0.07834   0.07834   0.10559   0.12052   0.12052
 Alpha virt. eigenvalues --    0.13183   0.13183   0.15281   0.16075   0.26232

 Mulliken charges and spin densities:
               1          2
     1  Ni   1.062302   1.929426
     2  O   -1.062302   0.070574
 Sum of Mulliken charges =  -0.00000   2.00000

 Dipole moment (field-independent basis, Debye):
    X=              0.0000    Y=              0.0000    Z=              8.1364  Tot=              8.1364
 Quadrupole moment (field-independent basis, Debye-Ang):
   XX=            -18.4559   YY=            -18.4559   ZZ=            -21.6775
   XY=              0.0000   XZ=              0.0000   YZ=              0.0000

 \\#P ROCCSD(T)=(MaxCyc=150, Full)/Gen SCF=(maxcycle=400) Pseudo=Read I
 PMP2-0=-186.8032741\MP4SDQ=-186.7751602\CCSD=-186.7678198\CCSD(T)=-186
 Normal termination of Gaussian 16 at Tue Mar 27 11:09:29 2018.
