 Gaussian 16, Revision A.03,
 Gaussian 16:  ES64L-G16RevA.03 25-Dec-2016

 ----------------------------------------------------------------------
 #P ROCCSD(T)=(maxcyc=150, Full, SaveAmplitudes, ReadAmplitudes)/Gen 5d
  7f SCF=(maxcycles=300) Integral(NoXCTest) MaxDisk=500GB Pop=Regular P
 seudo=Read Guess=Read
 ----------------------------------------------------------------------

 ---
 TiO
 ---
 Symbolic Z-matrix:
 Charge =  0 Multiplicity = 3

                         Standard orientation:
 ---------------------------------------------------------------------
 Center     Atomic      Atomic             Coordinates (Angstroms)
 Number     Number       Type             X           Y           Z
 ---------------------------------------------------------------------
      1         22           0        0.000000    0.000000    0.426667
      2          8           0        0.000000    0.000000   -1.173333
 ---------------------------------------------------------------------

 SCF Done:  E(ROHF) =  -73.5450198004     A.U. after   19 cycles
 E2 =    -0.7871516662D+00 EUMP2 =    -0.74332171466596D+02
 CCSD(T)
 CCSD(T)= -0.74359146893D+02

 Unable to determine electronic state:  an orbital has unidentified symmetry.
 Alpha  occ. eigenvalues --   -3.04098  -1.89713  -1.89713  -1.88474  -1.14827
 Alpha  occ. eigenvalues --   -0.46660  -0.45059  -0.45059  -0.44940  -0.26363
 Alpha virt. eigenvalues --    0.00328   0.00328   0.01464   0.02332   0.03632
 Alpha virt. eigenvalues --    0.03632   0.03696   0.03768   0.04172   0.04172
 Alpha virt. eigenvalues --    0.04199   0.05291   0.09139   0.10347   0.11566

 Mulliken charges and spin densities:
               1          2
     1  Ti   1.059727   1.970322
     2  O   -1.059727   0.029678
 Sum of Mulliken charges =  -0.00000   2.00000

 Dipole moment (field-independent basis, Debye):
    X=              0.0000    Y=              0.0000    Z=              4.1550  Tot=              4.1550
 Quadrupole moment (field-independent basis, Debye-Ang):
   XX=            -21.4125   YY=            -21.4125   ZZ=            -29.1495
   XY=              0.0000   XZ=              0.0000   YZ=              0.0000

 \\#P ROCCSD(T)=(maxcyc=150, Full, SaveAmplitudes, ReadAmplitudes)/Gen
 -0=-74.3321715\CCSD=-74.3126578\CCSD(T)=-74.3591469\RMSD=5.151e-09\PG=
 Normal termination of Gaussian 16 at Mon Mar 12 15:40:06 2018.
