 Gaussian 16, Revision A.03,
 Gaussian 16:  ES64L-G16RevA.03 25-Dec-2016

 ----------------------------------------------------------------------
 #P ROCCSD(T)=(maxcyc=150, Full, SaveAmplitudes, ReadAmplitudes)/Gen 5d
  7f SCF=(maxcycles=300) Integral(NoXCTest) MaxDisk=500GB Pop=Regular P
 seudo=Read Guess=Read IOp(5/15=2)
 ----------------------------------------------------------------------

 ---
 ScO
 ---
 Symbolic Z-matrix:
 Charge =  0 Multiplicity = 2

                         Standard orientation:
 ---------------------------------------------------------------------
 Center     Atomic      Atomic             Coordinates (Angstroms)
 Number     Number       Type             X           Y           Z
 ---------------------------------------------------------------------
      1         21           0        0.000000    0.000000    0.358621
      2          8           0        0.000000    0.000000   -0.941379
 ---------------------------------------------------------------------

 SCF Done:  E(ROHF) =  -61.7678298147     A.U. after   18 cycles
 E2 =    -0.6634227095D+00 EUMP2 =    -0.62431252524139D+02
 CCSD(T)
 CCSD(T)= -0.62460099160D+02

 The electronic state is 2-SG.
 Alpha  occ. eigenvalues --   -2.57919  -1.76740  -1.53160  -1.53160  -1.06804
 Alpha  occ. eigenvalues --   -0.57941  -0.57941  -0.47219  -0.19392
 Alpha virt. eigenvalues --    0.00985   0.00985   0.02032   0.02513   0.03781
 Alpha virt. eigenvalues --    0.03781   0.03796   0.03796   0.03901   0.04778
 Alpha virt. eigenvalues --    0.04778   0.07337   0.10845   0.10845   0.11030

 Mulliken charges and spin densities:
               1          2
     1  Sc   1.188446   1.005480
     2  O   -1.188446  -0.005480
 Sum of Mulliken charges =  -0.00000   1.00000

 Dipole moment (field-independent basis, Debye):
    X=              0.0000    Y=              0.0000    Z=              0.1438  Tot=              0.1438
 Quadrupole moment (field-independent basis, Debye-Ang):
   XX=            -22.8071   YY=            -22.8071   ZZ=            -29.6605
   XY=              0.0000   XZ=              0.0000   YZ=              0.0000

 \\#P ROCCSD(T)=(maxcyc=150, Full, SaveAmplitudes, ReadAmplitudes)/Gen
 93\CCSD=-62.4302499\CCSD(T)=-62.4600992\RMSD=5.761e-09\PG=C*V [C*(O1Sc
 Normal termination of Gaussian 16 at Tue Feb 20 22:34:39 2018.
