 Gaussian 16, Revision A.03,
 Gaussian 16:  ES64L-G16RevA.03 25-Dec-2016

 ----------------------------------------------------------------------
 #P ROCCSD(T)=(maxcyc=150, Full, SaveAmplitudes, ReadAmplitudes)/Gen 5d
  7f SCF=(maxcycles=300) Integral(NoXCTest) MaxDisk=500GB Pop=Regular P
 seudo=Read Guess=Read
 ----------------------------------------------------------------------

 ---
 CrO
 ---
 Symbolic Z-matrix:
 Charge =  0 Multiplicity = 5

                         Standard orientation:
 ---------------------------------------------------------------------
 Center     Atomic      Atomic             Coordinates (Angstroms)
 Number     Number       Type             X           Y           Z
 ---------------------------------------------------------------------
      1         24           0        0.000000    0.000000    0.475000
      2          8           0        0.000000    0.000000   -1.425000
 ---------------------------------------------------------------------

 SCF Done:  E(ROHF) =  -101.827022719     A.U. after   66 cycles
 E2 =    -0.8824734594D+00 EUMP2 =    -0.10270949617869D+03
 CCSD(T)
 CCSD(T)= -0.10276381767D+03

 Unable to determine electronic state:  an orbital has unidentified symmetry.
 Alpha  occ. eigenvalues --   -3.76838  -2.53125  -2.48074  -2.47314  -1.08669
 Alpha  occ. eigenvalues --   -0.59022  -0.56744  -0.56577  -0.53879  -0.33347
 Alpha  occ. eigenvalues --   -0.32835  -0.31935
 Alpha virt. eigenvalues --   -0.05264   0.00429   0.01009   0.01149   0.03067
 Alpha virt. eigenvalues --    0.04256   0.05145   0.05145   0.05415   0.06114
 Alpha virt. eigenvalues --    0.06157   0.06357   0.10168   0.11225   0.12037

 Mulliken charges and spin densities:
               1          2
     1  Cr   1.084416   3.963988
     2  O   -1.084416   0.036012
 Sum of Mulliken charges =  -0.00000   4.00000

 Dipole moment (field-independent basis, Debye):
    X=              0.0000    Y=              0.0000    Z=             10.1398  Tot=             10.1398
 Quadrupole moment (field-independent basis, Debye-Ang):
   XX=            -19.7512   YY=            -19.0647   ZZ=            -24.9205
   XY=              0.0000   XZ=              0.0000   YZ=              0.0000

 \\#P ROCCSD(T)=(maxcyc=150, Full, SaveAmplitudes, ReadAmplitudes)/Gen
 055\CCSD(T)=-102.7638177\RMSD=2.827e-09\PG=C*V [C*(O1Cr1)]\\@
 Normal termination of Gaussian 16 at Sat Mar 10 10:59:01 2018.
