 Gaussian 16, Revision A.03,
 Gaussian 16:  ES64L-G16RevA.03 25-Dec-2016

 ----------------------------------------------------------------------
 #P ROCCSD(T)=(maxcyc=150, Full, SaveAmplitudes, ReadAmplitudes)/Gen 5d
  7f SCF=(maxcycles=300) Integral(NoXCTest) MaxDisk=500GB Pop=Regular P
 seudo=Read Guess=Read IOp(5/15=2)
 ----------------------------------------------------------------------

 ---
 TiO
 ---
 Symbolic Z-matrix:
 Charge =  0 Multiplicity = 3

                         Standard orientation:
 ---------------------------------------------------------------------
 Center     Atomic      Atomic             Coordinates (Angstroms)
 Number     Number       Type             X           Y           Z
 ---------------------------------------------------------------------
      1         22           0        0.000000    0.000000    0.400000
      2          8           0        0.000000    0.000000   -1.100000
 ---------------------------------------------------------------------

 SCF Done:  E(ROHF) =  -73.3934692063     A.U. after   22 cycles
 E2 =    -0.7412077455D+00 EUMP2 =    -0.74134676951764D+02
 CCSD(T)
 CCSD(T)= -0.74161804508D+02

 Unable to determine electronic state:  an orbital has unidentified symmetry.
 Alpha  occ. eigenvalues --   -2.99247  -1.90027  -1.87858  -1.87858  -1.17054
 Alpha  occ. eigenvalues --   -0.48956  -0.48956  -0.48532  -0.42407  -0.24853
 Alpha virt. eigenvalues --    0.00733   0.00733   0.01908   0.02585   0.04395
 Alpha virt. eigenvalues --    0.04395   0.04948   0.05042   0.05233   0.05842
 Alpha virt. eigenvalues --    0.05842   0.07452   0.11373   0.11904   0.14110

 Mulliken charges and spin densities:
               1          2
     1  Ti   0.855119   2.009895
     2  O   -0.855119  -0.009895
 Sum of Mulliken charges =  -0.00000   2.00000

 Dipole moment (field-independent basis, Debye):
    X=              0.0000    Y=              0.0000    Z=              3.0926  Tot=              3.0926
 Quadrupole moment (field-independent basis, Debye-Ang):
   XX=            -21.5353   YY=            -21.5353   ZZ=            -28.4065
   XY=              0.0000   XZ=              0.0000   YZ=              0.0000

 \\#P ROCCSD(T)=(maxcyc=150, Full, SaveAmplitudes, ReadAmplitudes)/Gen
 08281\CCSD(T)=-74.1618045\RMSD=3.655e-09\PG=C*V [C*(O1Ti1)]\\@
 Normal termination of Gaussian 16 at Sun Mar 11 04:07:03 2018.
