 Gaussian 16, Revision A.03,
 Gaussian 16:  ES64L-G16RevA.03 25-Dec-2016

 ----------------------------------------------------------------------
 #P ROCCSD(T)=(maxcyc=150, Full, SaveAmplitudes, ReadAmplitudes)/Gen 5d
  7f SCF=(maxcycles=300) Integral(NoXCTest) MaxDisk=500GB Pop=Regular P
 seudo=Read Guess=Read IOp(5/15=2)
 ----------------------------------------------------------------------

 ---
 CrO
 ---
 Symbolic Z-matrix:
 Charge =  0 Multiplicity = 5

                         Standard orientation:
 ---------------------------------------------------------------------
 Center     Atomic      Atomic             Coordinates (Angstroms)
 Number     Number       Type             X           Y           Z
 ---------------------------------------------------------------------
      1         24           0        0.000000    0.000000    0.375000
      2          8           0        0.000000    0.000000   -1.125000
 ---------------------------------------------------------------------

 SCF Done:  E(ROHF) =  -101.815425069     A.U. after   26 cycles
 E2 =    -0.8750519996D+00 EUMP2 =    -0.10269047706899D+03
 CCSD(T)
 CCSD(T)= -0.10271325756D+03

 Unable to determine electronic state:  an orbital has unidentified symmetry.
 Alpha  occ. eigenvalues --   -3.75638  -2.52240  -2.48220  -2.45487  -1.21415
 Alpha  occ. eigenvalues --   -0.63471  -0.57545  -0.56027  -0.50582  -0.48197
 Alpha  occ. eigenvalues --   -0.39755  -0.30033
 Alpha virt. eigenvalues --    0.00742   0.01200   0.01920   0.03177   0.04618
 Alpha virt. eigenvalues --    0.04914   0.06336   0.07612   0.07622   0.08012
 Alpha virt. eigenvalues --    0.08438   0.08577   0.12836   0.14388   0.16716

 Mulliken charges and spin densities:
               1          2
     1  Cr   1.016095   3.831385
     2  O   -1.016095   0.168615
 Sum of Mulliken charges =   0.00000   4.00000

 Dipole moment (field-independent basis, Debye):
    X=              0.0000    Y=              0.0000    Z=              4.4193  Tot=              4.4193
 Quadrupole moment (field-independent basis, Debye-Ang):
   XX=            -20.8545   YY=            -19.7487   ZZ=            -24.4824
   XY=              0.0000   XZ=              0.0000   YZ=              0.0000

 \\#P ROCCSD(T)=(maxcyc=150, Full, SaveAmplitudes, ReadAmplitudes)/Gen
 SD=-102.6657344\CCSD(T)=-102.7132576\RMSD=7.062e-09\PG=C*V [C*(O1Cr1)]
 Normal termination of Gaussian 16 at Sat Mar 10 05:53:02 2018.
