 Gaussian 16, Revision A.03,
 Gaussian 16:  ES64L-G16RevA.03 25-Dec-2016

 ----------------------------------------------------------------------
 #P ROCCSD(T)=(maxcyc=150, Full, SaveAmplitudes, ReadAmplitudes)/Gen 5d
  7f SCF=(maxcycles=300) Integral(NoXCTest) MaxDisk=500GB Pop=Regular P
 seudo=Read Guess=Read
 ----------------------------------------------------------------------

 ---
 ScO
 ---
 Symbolic Z-matrix:
 Charge =  0 Multiplicity = 2

                         Standard orientation:
 ---------------------------------------------------------------------
 Center     Atomic      Atomic             Coordinates (Angstroms)
 Number     Number       Type             X           Y           Z
 ---------------------------------------------------------------------
      1         21           0        0.000000    0.000000    0.303448
      2          8           0        0.000000    0.000000   -0.796552
 ---------------------------------------------------------------------

 SCF Done:  E(ROHF) =  -61.3863509261     A.U. after   15 cycles
 E2 =    -0.6729421591D+00 EUMP2 =    -0.62059293085212D+02
 CCSD(T)
 CCSD(T)= -0.62089383942D+02

 The electronic state is 2-SG.
 Alpha  occ. eigenvalues --   -2.69297  -1.86208  -1.53771  -1.53771  -1.04070
 Alpha  occ. eigenvalues --   -0.69517  -0.69517  -0.47191  -0.16516
 Alpha virt. eigenvalues --    0.00905   0.00905   0.01362   0.02696   0.02830
 Alpha virt. eigenvalues --    0.02830   0.02843   0.02843   0.02959   0.04367
 Alpha virt. eigenvalues --    0.04367   0.06111   0.08134   0.08134   0.08385

 Mulliken charges and spin densities:
               1          2
     1  Sc   0.713428   1.032404
     2  O   -0.713428  -0.032404
 Sum of Mulliken charges =  -0.00000   1.00000

 Dipole moment (field-independent basis, Debye):
    X=              0.0000    Y=              0.0000    Z=             -2.4677  Tot=              2.4677
 Quadrupole moment (field-independent basis, Debye-Ang):
   XX=            -24.4622   YY=            -24.4622   ZZ=            -28.5972
   XY=              0.0000   XZ=              0.0000   YZ=              0.0000

 \\#P ROCCSD(T)=(maxcyc=150, Full, SaveAmplitudes, ReadAmplitudes)/Gen
 863509\PMP2-0=-62.0592931\CCSD=-62.0627901\CCSD(T)=-62.0893839\RMSD=1.
 Normal termination of Gaussian 16 at Tue Feb 20 20:58:17 2018.
