 Gaussian 16, Revision A.03,
 Gaussian 16:  ES64L-G16RevA.03 25-Dec-2016

 ----------------------------------------------------------------------
 #P ROCCSD(T)=(maxcyc=150, Full)/Gen 5d 7f SCF=(maxcycles=300, NoVarAcc
 , VShift=200) MaxDisk=100GB Pop=Regular Pseudo=Read Guess=Read
 ----------------------------------------------------------------------

 --
 Mn
 --
 Symbolic Z-matrix:
 Charge =  0 Multiplicity = 6

                         Standard orientation:
 ---------------------------------------------------------------------
 Center     Atomic      Atomic             Coordinates (Angstroms)
 Number     Number       Type             X           Y           Z
 ---------------------------------------------------------------------
      1         25           0        0.000000    0.000000    0.000000
 ---------------------------------------------------------------------

 SCF Done:  E(ROHF) =  -103.524771539     A.U. after   18 cycles
 E2 =    -0.6061886995D+00 EUMP2 =    -0.10413096023891D+03
 CCSD(T)
 CCSD(T)= -0.10414950109D+03

 The electronic state is 6-A1G.
 Alpha  occ. eigenvalues --   -4.15678  -2.79698  -2.79698  -2.79698  -0.62845
 Alpha  occ. eigenvalues --   -0.62845  -0.62845  -0.62845  -0.62845  -0.26840
 Alpha virt. eigenvalues --    0.01709   0.01709   0.01709   0.02123   0.05598
 Alpha virt. eigenvalues --    0.05598   0.05598   0.05598   0.05598   0.05609
 Alpha virt. eigenvalues --    0.05609   0.05609   0.10423   0.17441   0.17441

 Mulliken charges and spin densities:
               1          2
     1  Mn  -0.000000   5.000000
 Sum of Mulliken charges =  -0.00000   5.00000

 Dipole moment (field-independent basis, Debye):
    X=              0.0000    Y=              0.0000    Z=              0.0000  Tot=              0.0000
 Quadrupole moment (field-independent basis, Debye-Ang):
   XX=            -18.8224   YY=            -18.8224   ZZ=            -18.8224
   XY=              0.0000   XZ=             -0.0000   YZ=              0.0000

 1\1\GINC-C406-023\SP\ROCCSD(T)-Full\Gen\Mn1(6)\AANNABE\12-Mar-2018\0\\
 #P ROCCSD(T)=(maxcyc=150, Full)/Gen 5d 7f SCF=(maxcycles=300, NoVarAcc
 , VShift=200) MaxDisk=100GB Pop=Regular Pseudo=Read Guess=Read\\Mn\\0,
 6\Mn,0,0.,0.,0.\\Version=ES64L-G16RevA.03\State=6-A1G\HF=-103.5247715\
 MP2=-104.1309602\MP3=-104.1284662\PUHF=-103.5247715\PMP2-0=-104.130960
 2\MP4SDQ=-104.1305411\CCSD=-104.1308076\CCSD(T)=-104.1495011\RMSD=7.75
 8e-09\PG=OH [O(Mn1)]\\@

 Normal termination of Gaussian 16 at Mon Mar 12 15:01:46 2018.
