 Gaussian 16, Revision A.03,
 Gaussian 16:  ES64L-G16RevA.03 25-Dec-2016

 ----------------------------------------------------------------------
 #P ROCCSD(T)=(maxcyc=150, Full)/Gen 5d 7f SCF=(maxcycles=300) Integral
 (NoXCTest) MaxDisk=500GB Pop=Regular Pseudo=Read IOp(5/15=2) Guess=Rea
 d
 ----------------------------------------------------------------------

 ---
 ScH
 ---
 Symbolic Z-matrix:
 Charge =  0 Multiplicity = 1

                         Standard orientation:
 ---------------------------------------------------------------------
 Center     Atomic      Atomic             Coordinates (Angstroms)
 Number     Number       Type             X           Y           Z
 ---------------------------------------------------------------------
      1         21           0        0.000000    0.000000    0.045455
      2          1           0        0.000000    0.000000   -0.954545
 ---------------------------------------------------------------------

 SCF Done:  E(ROHF) =  -46.5228263083     A.U. after   14 cycles
 E2 =    -0.4159626497D+00 EUMP2 =    -0.46938788957975D+02
 CCSD(T)
 CCSD(T)= -0.46977479938D+02

 The electronic state is 1-SG.
 Alpha  occ. eigenvalues --   -2.64220  -1.66581  -1.56323  -1.56323  -0.47582
 Alpha  occ. eigenvalues --   -0.21394
 Alpha virt. eigenvalues --    0.01290   0.01441   0.01441   0.02344   0.03461
 Alpha virt. eigenvalues --    0.03919   0.03919   0.03960   0.03960   0.04752
 Alpha virt. eigenvalues --    0.05079   0.05079   0.09622   0.11027   0.11027

 Mulliken charges and spin densities:
               1          2
     1  Sc   0.468177   0.000000
     2  H   -0.468177   0.000000
 Sum of Mulliken charges =  -0.00000   0.00000

 Dipole moment (field-independent basis, Debye):
    X=              0.0000    Y=              0.0000    Z=              1.2483  Tot=              1.2483
 Quadrupole moment (field-independent basis, Debye-Ang):
   XX=            -23.3406   YY=            -23.3406   ZZ=            -21.8930
   XY=              0.0000   XZ=              0.0000   YZ=              0.0000

 P ROCCSD(T)=(maxcyc=150, Full)/Gen 5d 7f SCF=(maxcycles=300) Integral(
 P2-0=-46.938789\MP4SDQ=-46.9607344\CCSD=-46.9605677\CCSD(T)=-46.977479
 Normal termination of Gaussian 16 at Tue Feb 13 15:47:38 2018.
