 Gaussian 16, Revision A.03,
 Gaussian 16:  ES64L-G16RevA.03 25-Dec-2016

 ----------------------------------------------------------------------
 #P ROCCSD(T)=(maxcyc=150, Full, SaveAmplitudes, ReadAmplitudes)/Gen 5d
  7f SCF=(maxcycles=300) Integral(NoXCTest) MaxDisk=500GB Pop=Regular P
 seudo=Read Guess=Read IOp(5/15=2)
 ----------------------------------------------------------------------

 ---
 MnO
 ---
 Symbolic Z-matrix:
 Charge =  0 Multiplicity = 6

                         Standard orientation:
 ---------------------------------------------------------------------
 Center     Atomic      Atomic             Coordinates (Angstroms)
 Number     Number       Type             X           Y           Z
 ---------------------------------------------------------------------
      1         25           0        0.000000    0.000000    0.339394
      2          8           0        0.000000    0.000000   -1.060606
 ---------------------------------------------------------------------

 SCF Done:  E(ROHF) =  -119.095684935     A.U. after   37 cycles
 E2 =    -0.9256662562D+00 EUMP2 =    -0.12002135119164D+03
 CCSD(T)
 CCSD(T)= -0.12003289490D+03

 The electronic state is 6-SG.
 Alpha  occ. eigenvalues --   -4.15088  -2.79672  -2.79672  -2.77483  -1.24511
 Alpha  occ. eigenvalues --   -0.70574  -0.70574  -0.63255  -0.63255  -0.55896
 Alpha  occ. eigenvalues --   -0.41090  -0.41090  -0.31752
 Alpha virt. eigenvalues --    0.01198   0.02185   0.02185   0.03330   0.05135
 Alpha virt. eigenvalues --    0.07094   0.07094   0.08703   0.08703   0.09365
 Alpha virt. eigenvalues --    0.09365   0.09493   0.12556   0.15450   0.23643

 Mulliken charges and spin densities:
               1          2
     1  Mn   0.913188   4.796864
     2  O   -0.913188   0.203136
 Sum of Mulliken charges =  -0.00000   5.00000

 Dipole moment (field-independent basis, Debye):
    X=              0.0000    Y=              0.0000    Z=              4.2027  Tot=              4.2027
 Quadrupole moment (field-independent basis, Debye-Ang):
   XX=            -19.6677   YY=            -19.6677   ZZ=            -23.1827
   XY=              0.0000   XZ=              0.0000   YZ=              0.0000

 \\#P ROCCSD(T)=(maxcyc=150, Full, SaveAmplitudes, ReadAmplitudes)/Gen
 .0086398\CCSD=-119.9917349\CCSD(T)=-120.0328949\RMSD=9.724e-09\PG=C*V
 Normal termination of Gaussian 16 at Fri Mar  9 16:36:41 2018.
