 Gaussian 16, Revision A.03,
 Gaussian 16:  ES64L-G16RevA.03 25-Dec-2016

 ----------------------------------------------------------------------
 #P ROCCSD(T)=(MaxCyc=150, Full)/Gen SCF=(maxcycle=400) Pseudo=Read Int
 egral(NoXCTest) Pop=Regular MaxDisk=500GB Guess=Read IOp(5/15=2)
 ----------------------------------------------------------------------

 ---
 CuO
 ---
 Symbolic Z-matrix:
 Charge =  0 Multiplicity = 2

                         Standard orientation:
 ---------------------------------------------------------------------
 Center     Atomic      Atomic             Coordinates (Angstroms)
 Number     Number       Type             X           Y           Z
 ---------------------------------------------------------------------
      1         29           0        0.000000    0.000000    0.389189
      2          8           0        0.000000    0.000000   -1.410811
 ---------------------------------------------------------------------

 SCF Done:  E(ROHF) =  -212.244648960     A.U. after   17 cycles
 E2 =    -0.1328673555D+01 EUMP2 =    -0.21357332251561D+03
 CCSD(T)
 CCSD(T)= -0.21350903691D+03

 Unable to determine electronic state:  an orbital has unidentified symmetry.
 Alpha  occ. eigenvalues --   -5.27117  -3.54066  -3.53909  -3.53712  -1.21636
 Alpha  occ. eigenvalues --   -0.56463  -0.53797  -0.53409  -0.51950  -0.51949
 Alpha  occ. eigenvalues --   -0.48049  -0.41592  -0.40685
 Alpha virt. eigenvalues --   -0.01470   0.02488   0.02617   0.03454   0.04383
 Alpha virt. eigenvalues --    0.08727   0.08969   0.11575   0.13274   0.13280
 Alpha virt. eigenvalues --    0.14509   0.14576   0.15046   0.18888   0.21302

 Mulliken charges and spin densities:
               1          2
     1  Cu   0.734018   0.014334
     2  O   -0.734018   0.985666
 Sum of Mulliken charges =  -0.00000   1.00000

 Dipole moment (field-independent basis, Debye):
    X=              0.0000    Y=              0.0000    Z=              5.9965  Tot=              5.9965
 Quadrupole moment (field-independent basis, Debye-Ang):
   XX=            -15.5265   YY=            -17.0797   ZZ=            -20.9769
   XY=              0.0000   XZ=              0.0000   YZ=              0.0000

 \\#P ROCCSD(T)=(MaxCyc=150, Full)/Gen SCF=(maxcycle=400) Pseudo=Read I
 33225\MP4SDQ=-213.5301176\CCSD=-213.4622134\CCSD(T)=-213.5090369\RMSD=
 Normal termination of Gaussian 16 at Mon Mar 26 13:01:40 2018.
