 Gaussian 16, Revision A.03,
 Gaussian 16:  ES64L-G16RevA.03 25-Dec-2016

 ----------------------------------------------------------------------
 #P ROCCSD(T)=(MaxCyc=150, Full)/Gen SCF=(maxcycle=400) Pseudo=Read Int
 egral(NoXCTest) Pop=Regular MaxDisk=500GB Guess=Read IOp(5/15=2)
 ----------------------------------------------------------------------

 ---
 CuO
 ---
 Symbolic Z-matrix:
 Charge =  0 Multiplicity = 2

                         Standard orientation:
 ---------------------------------------------------------------------
 Center     Atomic      Atomic             Coordinates (Angstroms)
 Number     Number       Type             X           Y           Z
 ---------------------------------------------------------------------
      1         29           0        0.000000    0.000000    0.389189
      2          8           0        0.000000    0.000000   -1.410811
 ---------------------------------------------------------------------

 SCF Done:  E(ROHF) =  -212.229794295     A.U. after   17 cycles
 E2 =    -0.1265020811D+01 EUMP2 =    -0.21349481510588D+03
 CCSD(T)
 CCSD(T)= -0.21343328201D+03

 Unable to determine electronic state:  an orbital has unidentified symmetry.
 Alpha  occ. eigenvalues --   -5.27406  -3.54262  -3.54098  -3.53898  -1.21665
 Alpha  occ. eigenvalues --   -0.56462  -0.53791  -0.53414  -0.51935  -0.51934
 Alpha  occ. eigenvalues --   -0.48045  -0.41596  -0.40694
 Alpha virt. eigenvalues --   -0.01472   0.02788   0.02945   0.03919   0.04600
 Alpha virt. eigenvalues --    0.10188   0.10500   0.13568   0.19375   0.19410
 Alpha virt. eigenvalues --    0.19484   0.20477   0.21624   0.22705   0.26002

 Mulliken charges and spin densities:
               1          2
     1  Cu   0.808620   0.014674
     2  O   -0.808620   0.985326
 Sum of Mulliken charges =  -0.00000   1.00000

 Dipole moment (field-independent basis, Debye):
    X=              0.0000    Y=              0.0000    Z=              6.0102  Tot=              6.0102
 Quadrupole moment (field-independent basis, Debye-Ang):
   XX=            -15.5361   YY=            -17.1056   ZZ=            -20.9615
   XY=              0.0000   XZ=              0.0000   YZ=              0.0000

 \\#P ROCCSD(T)=(MaxCyc=150, Full)/Gen SCF=(maxcycle=400) Pseudo=Read I
 4948151\MP4SDQ=-213.457402\CCSD=-213.3889042\CCSD(T)=-213.433282\RMSD=
 Normal termination of Gaussian 16 at Mon Mar 26 10:30:13 2018.
