 Gaussian 16, Revision A.03,
 Gaussian 16:  ES64L-G16RevA.03 25-Dec-2016

 ----------------------------------------------------------------------
 #P ROCCSD(T)=(maxcyc=150, Full, SaveAmplitudes, ReadAmplitudes)/Gen 5d
  7f SCF=(maxcycles=300) Integral(NoXCTest) MaxDisk=500GB Pop=Regular P
 seudo=Read Guess=Read
 ----------------------------------------------------------------------

 ---
 TiO
 ---
 Symbolic Z-matrix:
 Charge =  0 Multiplicity = 3

                         Standard orientation:
 ---------------------------------------------------------------------
 Center     Atomic      Atomic             Coordinates (Angstroms)
 Number     Number       Type             X           Y           Z
 ---------------------------------------------------------------------
      1         22           0        0.000000    0.000000    0.426667
      2          8           0        0.000000    0.000000   -1.173333
 ---------------------------------------------------------------------

 SCF Done:  E(ROHF) =  -73.2756461694     A.U. after   20 cycles
 E2 =    -0.7748513371D+00 EUMP2 =    -0.74050497506539D+02
 CCSD(T)
 CCSD(T)= -0.74077265748D+02

 Unable to determine electronic state:  an orbital has unidentified symmetry.
 Alpha  occ. eigenvalues --   -3.00085  -1.91134  -1.91134  -1.90112  -1.15775
 Alpha  occ. eigenvalues --   -0.46841  -0.45295  -0.45295  -0.45217  -0.26209
 Alpha virt. eigenvalues --    0.00363   0.00363   0.01458   0.02346   0.03660
 Alpha virt. eigenvalues --    0.03660   0.03698   0.03770   0.04170   0.04170
 Alpha virt. eigenvalues --    0.04193   0.05312   0.09084   0.10362   0.11571

 Mulliken charges and spin densities:
               1          2
     1  Ti   1.033992   1.969809
     2  O   -1.033992   0.030191
 Sum of Mulliken charges =  -0.00000   2.00000

 Dipole moment (field-independent basis, Debye):
    X=              0.0000    Y=              0.0000    Z=              4.1313  Tot=              4.1313
 Quadrupole moment (field-independent basis, Debye-Ang):
   XX=            -21.5564   YY=            -21.5564   ZZ=            -29.1162
   XY=              0.0000   XZ=              0.0000   YZ=              0.0000

 \\#P ROCCSD(T)=(maxcyc=150, Full, SaveAmplitudes, ReadAmplitudes)/Gen
 -0=-74.0504975\CCSD=-74.0313212\CCSD(T)=-74.0772657\RMSD=1.963e-09\PG=
 Normal termination of Gaussian 16 at Fri Mar  9 16:35:09 2018.
