 Gaussian 16, Revision A.03,
 Gaussian 16:  ES64L-G16RevA.03 25-Dec-2016

 ----------------------------------------------------------------------
 #P ROCCSD(T)=(maxcyc=150, Full, SaveAmplitudes, ReadAmplitudes)/Gen 5d
  7f SCF=(maxcycles=300) Integral(NoXCTest) MaxDisk=500GB Pop=Regular P
 seudo=Read Guess=Read
 ----------------------------------------------------------------------

 ---
 CrO
 ---
 Symbolic Z-matrix:
 Charge =  0 Multiplicity = 5

                         Standard orientation:
 ---------------------------------------------------------------------
 Center     Atomic      Atomic             Coordinates (Angstroms)
 Number     Number       Type             X           Y           Z
 ---------------------------------------------------------------------
      1         24           0        0.000000    0.000000    0.450000
      2          8           0        0.000000    0.000000   -1.350000
 ---------------------------------------------------------------------

 SCF Done:  E(ROHF) =  -101.841772886     A.U. after   26 cycles
 E2 =    -0.8867908779D+00 EUMP2 =    -0.10272856376427D+03
 CCSD(T)
 CCSD(T)= -0.10277929609D+03

 Unable to determine electronic state:  an orbital has unidentified symmetry.
 Alpha  occ. eigenvalues --   -3.75291  -2.51455  -2.46550  -2.45684  -1.09775
 Alpha  occ. eigenvalues --   -0.57192  -0.55757  -0.55070  -0.51880  -0.34211
 Alpha  occ. eigenvalues --   -0.32852  -0.32694
 Alpha virt. eigenvalues --   -0.04628   0.00597   0.01174   0.01340   0.03097
 Alpha virt. eigenvalues --    0.04456   0.05192   0.05192   0.05593   0.06074
 Alpha virt. eigenvalues --    0.06152   0.06510   0.10620   0.11285   0.12985

 Mulliken charges and spin densities:
               1          2
     1  Cr   1.114286   3.944092
     2  O   -1.114286   0.055908
 Sum of Mulliken charges =  -0.00000   4.00000

 Dipole moment (field-independent basis, Debye):
    X=              0.0000    Y=              0.0000    Z=              9.7577  Tot=              9.7577
 Quadrupole moment (field-independent basis, Debye-Ang):
   XX=            -19.6240   YY=            -18.7872   ZZ=            -24.0179
   XY=              0.0000   XZ=              0.0000   YZ=              0.0000

 \\#P ROCCSD(T)=(maxcyc=150, Full, SaveAmplitudes, ReadAmplitudes)/Gen
 MP2-0=-102.7285638\CCSD=-102.7256174\CCSD(T)=-102.7792961\RMSD=5.106e-
 Normal termination of Gaussian 16 at Fri Mar  9 18:24:45 2018.
