 Gaussian 16, Revision A.03,
 Gaussian 16:  ES64L-G16RevA.03 25-Dec-2016

 ----------------------------------------------------------------------
 #P ROCCSD(T)=(maxcyc=150, Full, SaveAmplitudes, ReadAmplitudes)/Gen 5d
  7f SCF=(maxcycles=300) Integral(NoXCTest) MaxDisk=500GB Pop=Regular P
 seudo=Read Guess=Read
 ----------------------------------------------------------------------

 ---
 TiO
 ---
 Symbolic Z-matrix:
 Charge =  0 Multiplicity = 3

                         Standard orientation:
 ---------------------------------------------------------------------
 Center     Atomic      Atomic             Coordinates (Angstroms)
 Number     Number       Type             X           Y           Z
 ---------------------------------------------------------------------
      1         22           0        0.000000    0.000000    0.346667
      2          8           0        0.000000    0.000000   -0.953333
 ---------------------------------------------------------------------

 SCF Done:  E(ROHF) =  -73.4044637896     A.U. after   22 cycles
 E2 =    -0.7673191255D+00 EUMP2 =    -0.74171782915168D+02
 CCSD(T)
 CCSD(T)= -0.74194167615D+02

 Unable to determine electronic state:  an orbital has unidentified symmetry.
 Alpha  occ. eigenvalues --   -2.97078  -1.95592  -1.81980  -1.81980  -1.14478
 Alpha  occ. eigenvalues --   -0.58983  -0.58983  -0.52385  -0.35892  -0.21786
 Alpha virt. eigenvalues --    0.01155   0.01155   0.02122   0.02316   0.03795
 Alpha virt. eigenvalues --    0.03795   0.03808   0.03849   0.03861   0.04647
 Alpha virt. eigenvalues --    0.04647   0.07242   0.10338   0.10688   0.11248

 Mulliken charges and spin densities:
               1          2
     1  Ti   0.854532   1.980536
     2  O   -0.854532   0.019464
 Sum of Mulliken charges =  -0.00000   2.00000

 Dipole moment (field-independent basis, Debye):
    X=              0.0000    Y=              0.0000    Z=              0.7179  Tot=              0.7179
 Quadrupole moment (field-independent basis, Debye-Ang):
   XX=            -21.9040   YY=            -21.9040   ZZ=            -26.8489
   XY=              0.0000   XZ=              0.0000   YZ=              0.0000

 \\#P ROCCSD(T)=(maxcyc=150, Full, SaveAmplitudes, ReadAmplitudes)/Gen
 -0=-74.1717829\CCSD=-74.1577888\CCSD(T)=-74.1941676\RMSD=1.659e-09\PG=
 Normal termination of Gaussian 16 at Tue Mar 13 01:15:58 2018.
