 Gaussian 16, Revision A.03,
 Gaussian 16:  ES64L-G16RevA.03 25-Dec-2016

 ----------------------------------------------------------------------
 #P ROCCSD(T)=(MaxCyc=150, Full)/Gen SCF=(maxcycle=400) Pseudo=Read Int
 egral(NoXCTest) Pop=Regular MaxDisk=500GB Guess=Read IOp(5/15=2)
 ----------------------------------------------------------------------

 ---
 CuH
 ---
 Symbolic Z-matrix:
 Charge =  0 Multiplicity = 1

                         Standard orientation:
 ---------------------------------------------------------------------
 Center     Atomic      Atomic             Coordinates (Angstroms)
 Number     Number       Type             X           Y           Z
 ---------------------------------------------------------------------
      1         29           0        0.000000    0.000000    0.056667
      2          1           0        0.000000    0.000000   -1.643333
 ---------------------------------------------------------------------

 SCF Done:  E(ROHF) =  -196.726160898     A.U. after   12 cycles
 E2 =    -0.1072348837D+01 EUMP2 =    -0.19779850973484D+03
 CCSD(T)
 CCSD(T)= -0.19772322102D+03

 The electronic state is 1-SG.
 Alpha  occ. eigenvalues --   -5.23660  -3.43924  -3.43848  -3.43848  -0.49704
 Alpha  occ. eigenvalues --   -0.49704  -0.49595  -0.49595  -0.49562  -0.33307
 Alpha virt. eigenvalues --   -0.00262   0.02878   0.02878   0.03750   0.04935
 Alpha virt. eigenvalues --    0.10001   0.10220   0.10220   0.17096   0.19734
 Alpha virt. eigenvalues --    0.19734   0.20136   0.20136   0.20471   0.25929

 Mulliken charges and spin densities:
               1          2
     1  Cu   0.386478   0.000000
     2  H   -0.386478   0.000000
 Sum of Mulliken charges =  -0.00000   0.00000

 Dipole moment (field-independent basis, Debye):
    X=              0.0000    Y=              0.0000    Z=              4.3838  Tot=              4.3838
 Quadrupole moment (field-independent basis, Debye-Ang):
   XX=            -13.6447   YY=            -13.6447   ZZ=            -17.1974
   XY=              0.0000   XZ=              0.0000   YZ=              0.0000

 P ROCCSD(T)=(MaxCyc=150, Full)/Gen SCF=(maxcycle=400) Pseudo=Read Inte
 2-0=-197.7985097\MP4SDQ=-197.7577353\CCSD=-197.6873312\CCSD(T)=-197.72
 Normal termination of Gaussian 16 at Wed Apr  4 23:01:14 2018.
