 Gaussian 16, Revision A.03,
 Gaussian 16:  ES64L-G16RevA.03 25-Dec-2016

 ----------------------------------------------------------------------
 #P ROCCSD(T)=(MaxCyc=150, Full)/Gen SCF=(maxcycle=400) Pseudo=Read Int
 egral(NoXCTest) Pop=Regular MaxDisk=500GB Guess=Read IOp(5/15=2)
 ----------------------------------------------------------------------

 ---
 CuH
 ---
 Symbolic Z-matrix:
 Charge =  0 Multiplicity = 1

                         Standard orientation:
 ---------------------------------------------------------------------
 Center     Atomic      Atomic             Coordinates (Angstroms)
 Number     Number       Type             X           Y           Z
 ---------------------------------------------------------------------
      1         29           0        0.000000    0.000000    0.056667
      2          1           0        0.000000    0.000000   -1.643333
 ---------------------------------------------------------------------

 SCF Done:  E(ROHF) =  -196.727452392     A.U. after   10 cycles
 E2 =    -0.1124148147D+01 EUMP2 =    -0.19785160053945D+03
 CCSD(T)
 CCSD(T)= -0.19777498491D+03

 The electronic state is 1-SG.
 Alpha  occ. eigenvalues --   -5.23663  -3.43917  -3.43845  -3.43845  -0.49712
 Alpha  occ. eigenvalues --   -0.49712  -0.49601  -0.49601  -0.49562  -0.33313
 Alpha virt. eigenvalues --   -0.00272   0.02586   0.02586   0.03398   0.04612
 Alpha virt. eigenvalues --    0.08850   0.08853   0.08853   0.13385   0.13524
 Alpha virt. eigenvalues --    0.13524   0.13752   0.13752   0.19345   0.21871

 Mulliken charges and spin densities:
               1          2
     1  Cu   0.356392   0.000000
     2  H   -0.356392   0.000000
 Sum of Mulliken charges =  -0.00000   0.00000

 Dipole moment (field-independent basis, Debye):
    X=              0.0000    Y=              0.0000    Z=              4.3742  Tot=              4.3742
 Quadrupole moment (field-independent basis, Debye-Ang):
   XX=            -13.6346   YY=            -13.6346   ZZ=            -17.2156
   XY=              0.0000   XZ=              0.0000   YZ=              0.0000

 P ROCCSD(T)=(MaxCyc=150, Full)/Gen SCF=(maxcycle=400) Pseudo=Read Inte
 2-0=-197.8516005\MP4SDQ=-197.8067338\CCSD=-197.7370687\CCSD(T)=-197.77
 Normal termination of Gaussian 16 at Wed Apr  4 23:54:05 2018.
