 Gaussian 16, Revision A.03,
 Gaussian 16:  ES64L-G16RevA.03 25-Dec-2016

 ----------------------------------------------------------------------
 #P ROCCSD(T)=(MaxCyc=150, Full)/Gen SCF=(maxcycle=400) Pseudo=Read Int
 egral(NoXCTest) Pop=Regular MaxDisk=500GB Guess=Read IOp(5/15=2)
 ----------------------------------------------------------------------

 ---
 CuH
 ---
 Symbolic Z-matrix:
 Charge =  0 Multiplicity = 1

                         Standard orientation:
 ---------------------------------------------------------------------
 Center     Atomic      Atomic             Coordinates (Angstroms)
 Number     Number       Type             X           Y           Z
 ---------------------------------------------------------------------
      1         29           0        0.000000    0.000000    0.056667
      2          1           0        0.000000    0.000000   -1.643333
 ---------------------------------------------------------------------

 SCF Done:  E(ROHF) =  -196.727522484     A.U. after    7 cycles
 E2 =    -0.1149103405D+01 EUMP2 =    -0.19787662588969D+03
 CCSD(T)
 CCSD(T)= -0.19779785063D+03

 The electronic state is 1-SG.
 Alpha  occ. eigenvalues --   -5.23665  -3.43918  -3.43846  -3.43846  -0.49713
 Alpha  occ. eigenvalues --   -0.49713  -0.49602  -0.49602  -0.49563  -0.33314
 Alpha virt. eigenvalues --   -0.00318   0.02503   0.02503   0.03110   0.03899
 Alpha virt. eigenvalues --    0.07651   0.08490   0.08490   0.12161   0.12161
 Alpha virt. eigenvalues --    0.12199   0.12352   0.12352   0.14754   0.18437

 Mulliken charges and spin densities:
               1          2
     1  Cu   0.316778   0.000000
     2  H   -0.316778   0.000000
 Sum of Mulliken charges =  -0.00000   0.00000

 Dipole moment (field-independent basis, Debye):
    X=              0.0000    Y=              0.0000    Z=              4.3725  Tot=              4.3725
 Quadrupole moment (field-independent basis, Debye-Ang):
   XX=            -13.6331   YY=            -13.6331   ZZ=            -17.2185
   XY=              0.0000   XZ=              0.0000   YZ=              0.0000

 P ROCCSD(T)=(MaxCyc=150, Full)/Gen SCF=(maxcycle=400) Pseudo=Read Inte
 2-0=-197.8766259\MP4SDQ=-197.8283855\CCSD=-197.7591865\CCSD(T)=-197.79
 Normal termination of Gaussian 16 at Thu Apr  5 02:43:34 2018.
