 Gaussian 16, Revision A.03,
 Gaussian 16:  ES64L-G16RevA.03 25-Dec-2016

 ----------------------------------------------------------------------
 #P ROCCSD(T)=(maxcyc=150, Full)/Gen 5d 7f SCF=(maxcycles=300) Integral
 (NoXCTest) MaxDisk=500GB Pop=Regular Pseudo=Read
 ----------------------------------------------------------------------

 ---
 ScH
 ---
 Symbolic Z-matrix:
 Charge =  0 Multiplicity = 1

                         Standard orientation:
 ---------------------------------------------------------------------
 Center     Atomic      Atomic             Coordinates (Angstroms)
 Number     Number       Type             X           Y           Z
 ---------------------------------------------------------------------
      1         21           0        0.000000    0.000000    0.050000
      2          1           0        0.000000    0.000000   -1.050000
 ---------------------------------------------------------------------

 SCF Done:  E(ROHF) =  -46.4791960098     A.U. after   12 cycles
 E2 =    -0.4178034584D+00 EUMP2 =    -0.46896999468240D+02
 CCSD(T)
 CCSD(T)= -0.46936106232D+02

 The electronic state is 1-SG.
 Alpha  occ. eigenvalues --   -2.60495  -1.64614  -1.57623  -1.57623  -0.47425
 Alpha  occ. eigenvalues --   -0.21310
 Alpha virt. eigenvalues --    0.01358   0.01400   0.01400   0.02290   0.03461
 Alpha virt. eigenvalues --    0.03913   0.03913   0.03956   0.03956   0.04790
 Alpha virt. eigenvalues --    0.04996   0.04996   0.09437   0.10824   0.10824

 Mulliken charges and spin densities:
               1          2
     1  Sc   0.507098   0.000000
     2  H   -0.507098   0.000000
 Sum of Mulliken charges =  -0.00000   0.00000

 Dipole moment (field-independent basis, Debye):
    X=              0.0000    Y=              0.0000    Z=              0.9936  Tot=              0.9936
 Quadrupole moment (field-independent basis, Debye-Ang):
   XX=            -23.6594   YY=            -23.6594   ZZ=            -22.1752
   XY=              0.0000   XZ=              0.0000   YZ=              0.0000

 P ROCCSD(T)=(maxcyc=150, Full)/Gen 5d 7f SCF=(maxcycles=300) Integral(
 =-46.9191608\CCSD=-46.9187939\CCSD(T)=-46.9361062\RMSD=1.398e-09\PG=C*
 Normal termination of Gaussian 16 at Mon Feb 12 16:42:11 2018.
