 Gaussian 16, Revision A.03,
 Gaussian 16:  ES64L-G16RevA.03 25-Dec-2016

 ----------------------------------------------------------------------
 #P ROCCSD(T)=(maxcyc=150, Full, SaveAmplitudes, ReadAmplitudes)/Gen 5d
  7f SCF=(maxcycles=300) Integral(NoXCTest) MaxDisk=500GB Pop=Regular P
 seudo=Read Guess=Read
 ----------------------------------------------------------------------

 ---
 MnH
 ---
 Symbolic Z-matrix:
 Charge =  0 Multiplicity = 7

                         Standard orientation:
 ---------------------------------------------------------------------
 Center     Atomic      Atomic             Coordinates (Angstroms)
 Number     Number       Type             X           Y           Z
 ---------------------------------------------------------------------
      1         25           0        0.000000    0.000000    0.046154
      2          1           0        0.000000    0.000000   -1.153846
 ---------------------------------------------------------------------

 SCF Done:  E(ROHF) =  -103.949564520     A.U. after   22 cycles
 E2 =    -0.6216975409D+00 EUMP2 =    -0.10457126206043D+03
 CCSD(T)
 CCSD(T)= -0.10459004105D+03

 The electronic state is 7-SG.
 Alpha  occ. eigenvalues --   -4.23600  -2.79677  -2.78749  -2.78749  -0.68202
 Alpha  occ. eigenvalues --   -0.63692  -0.63692  -0.63562  -0.63562  -0.41119
 Alpha  occ. eigenvalues --   -0.23621
 Alpha virt. eigenvalues --    0.01296   0.01296   0.01894   0.03193   0.05127
 Alpha virt. eigenvalues --    0.05127   0.05738   0.05829   0.05829   0.06150
 Alpha virt. eigenvalues --    0.06150   0.08187   0.14019   0.15483   0.17795

 Mulliken charges and spin densities:
               1          2
     1  Mn   0.643783   5.899924
     2  H   -0.643783   0.100076
 Sum of Mulliken charges =  -0.00000   6.00000

 Dipole moment (field-independent basis, Debye):
    X=              0.0000    Y=              0.0000    Z=             -0.3650  Tot=              0.3650
 Quadrupole moment (field-independent basis, Debye-Ang):
   XX=            -15.9905   YY=            -15.9905   ZZ=            -25.3939
   XY=              0.0000   XZ=              0.0000   YZ=              0.0000

 \\#P ROCCSD(T)=(maxcyc=150, Full, SaveAmplitudes, ReadAmplitudes)/Gen
 3.9495645\PMP2-0=-104.5712621\CCSD=-104.5720644\CCSD(T)=-104.590041\RM
 Normal termination of Gaussian 16 at Sun Feb 25 23:04:34 2018.
