 Gaussian 16, Revision A.03,
 Gaussian 16:  ES64L-G16RevA.03 25-Dec-2016

 ----------------------------------------------------------------------
 #P ROCCSD(T)=(maxcyc=150, Full)/Gen 5d 7f SCF=(maxcycles=300) Integral
 (NoXCTest) MaxDisk=500GB Pop=Regular Pseudo=Read Guess=Read
 ----------------------------------------------------------------------

 ---
 ScH
 ---
 Symbolic Z-matrix:
 Charge =  0 Multiplicity = 1

                         Standard orientation:
 ---------------------------------------------------------------------
 Center     Atomic      Atomic             Coordinates (Angstroms)
 Number     Number       Type             X           Y           Z
 ---------------------------------------------------------------------
      1         21           0        0.000000    0.000000    0.077273
      2          1           0        0.000000    0.000000   -1.622727
 ---------------------------------------------------------------------

 SCF Done:  E(ROHF) =  -46.6609640723     A.U. after    9 cycles
 E2 =    -0.4311968651D+00 EUMP2 =    -0.47092160937324D+02
 CCSD(T)
 CCSD(T)= -0.47133093255D+02

 The electronic state is 1-SG.
 Alpha  occ. eigenvalues --   -2.67842  -1.65770  -1.65604  -1.65604  -0.41735
 Alpha  occ. eigenvalues --   -0.22902
 Alpha virt. eigenvalues --    0.01145   0.01145   0.01479   0.01673   0.02603
 Alpha virt. eigenvalues --    0.02603   0.02650   0.02650   0.02681   0.04010
 Alpha virt. eigenvalues --    0.04090   0.04090   0.06957   0.07005   0.07005

 Mulliken charges and spin densities:
               1          2
     1  Sc   0.376069   0.000000
     2  H   -0.376069   0.000000
 Sum of Mulliken charges =  -0.00000   0.00000

 Dipole moment (field-independent basis, Debye):
    X=              0.0000    Y=              0.0000    Z=              1.2194  Tot=              1.2194
 Quadrupole moment (field-independent basis, Debye-Ang):
   XX=            -23.1242   YY=            -23.1242   ZZ=            -26.0286
   XY=              0.0000   XZ=              0.0000   YZ=              0.0000

 P ROCCSD(T)=(maxcyc=150, Full)/Gen 5d 7f SCF=(maxcycles=300) Integral(
 921609\MP4SDQ=-47.1135751\CCSD=-47.1134697\CCSD(T)=-47.1330933\RMSD=1.
 Normal termination of Gaussian 16 at Tue Feb 13 04:20:13 2018.
