 Gaussian 16, Revision A.03,
 Gaussian 16:  ES64L-G16RevA.03 25-Dec-2016

 ----------------------------------------------------------------------
 #P ROCCSD(T)=(maxcyc=150, Full, SaveAmplitudes, ReadAmplitudes)/Gen 5d
  7f SCF=(maxcycles=300) Integral(NoXCTest) MaxDisk=500GB Pop=Regular P
 seudo=Read Guess=Read IOp(5/15=2)
 ----------------------------------------------------------------------

 ---
 ScO
 ---
 Symbolic Z-matrix:
 Charge =  0 Multiplicity = 2

                         Standard orientation:
 ---------------------------------------------------------------------
 Center     Atomic      Atomic             Coordinates (Angstroms)
 Number     Number       Type             X           Y           Z
 ---------------------------------------------------------------------
      1         21           0        0.000000    0.000000    0.551724
      2          8           0        0.000000    0.000000   -1.448276
 ---------------------------------------------------------------------

 SCF Done:  E(ROHF) =  -61.7998142187     A.U. after   18 cycles
 E2 =    -0.6959528807D+00 EUMP2 =    -0.62495767099361D+02
 CCSD(T)
 CCSD(T)= -0.62528752732D+02

 The electronic state is 2-SG.
 Alpha  occ. eigenvalues --   -2.73787  -1.70922  -1.70922  -1.70400  -1.09840
 Alpha  occ. eigenvalues --   -0.38950  -0.34759  -0.34759  -0.28285
 Alpha virt. eigenvalues --   -0.01330  -0.01330   0.00548   0.01745   0.02824
 Alpha virt. eigenvalues --    0.02824   0.03102   0.03102   0.03705   0.04380
 Alpha virt. eigenvalues --    0.04380   0.04988   0.05104   0.05104   0.09694

 Mulliken charges and spin densities:
               1          2
     1  Sc   1.191746   0.977606
     2  O   -1.191746   0.022394
 Sum of Mulliken charges =  -0.00000   1.00000

 Dipole moment (field-independent basis, Debye):
    X=              0.0000    Y=              0.0000    Z=              7.4474  Tot=              7.4474
 Quadrupole moment (field-independent basis, Debye-Ang):
   XX=            -22.1580   YY=            -22.1580   ZZ=            -34.9339
   XY=              0.0000   XZ=              0.0000   YZ=              0.0000

 \\#P ROCCSD(T)=(maxcyc=150, Full, SaveAmplitudes, ReadAmplitudes)/Gen
 \CCSD=-62.4775234\CCSD(T)=-62.5287527\RMSD=8.278e-09\PG=C*V [C*(O1Sc1)
 Normal termination of Gaussian 16 at Wed Feb 21 07:55:25 2018.
