 Gaussian 16, Revision A.03,
 Gaussian 16:  ES64L-G16RevA.03 25-Dec-2016

 ----------------------------------------------------------------------
 #P ROCCSD(T)=(maxcyc=150, Window=(7,0), SaveAmplitudes, ReadAmplitudes
 )/Gen 5d 7f SCF=(maxcycles=300) Integral(NoXCTest, DKHSO) MaxDisk=500G
 B Pop=Regular Guess=Read IOp(5/15=2)
 ----------------------------------------------------------------------

 ---
 TiO
 ---
 Symbolic Z-matrix:
 Charge =  0 Multiplicity = 3

                         Standard orientation:
 ---------------------------------------------------------------------
 Center     Atomic      Atomic             Coordinates (Angstroms)
 Number     Number       Type             X           Y           Z
 ---------------------------------------------------------------------
      1         22           0        0.000000    0.000000    0.506667
      2          8           0        0.000000    0.000000   -1.393333
 ---------------------------------------------------------------------

 SCF Done:  E(ROHF) =  -927.651306603     A.U. after   23 cycles
 E2 =    -0.7323950431D+00 EUMP2 =    -0.92838370164641D+03
 CCSD(T)
 CCSD(T)= -0.92841838468D+03

 Unable to determine electronic state:  an orbital has unidentified symmetry.
 Alpha  occ. eigenvalues -- -184.53138 -21.80351 -20.48970 -17.96954 -17.96954
 Alpha  occ. eigenvalues --  -17.96768  -3.05708  -1.96499  -1.96499  -1.92377
 Alpha  occ. eigenvalues --   -1.11094  -0.52250  -0.41458  -0.37331  -0.37331
 Alpha  occ. eigenvalues --   -0.29827
 Alpha virt. eigenvalues --   -0.00944  -0.00944   0.00128   0.01964   0.03333
 Alpha virt. eigenvalues --    0.03333   0.03773   0.04464   0.05025   0.05951
 Alpha virt. eigenvalues --    0.05951   0.06112   0.07549   0.10575   0.10575

 Mulliken charges and spin densities:
               1          2
     1  Ti   0.974985   1.986040
     2  O   -0.974985   0.013960
 Sum of Mulliken charges =  -0.00000   2.00000

 Dipole moment (field-independent basis, Debye):
    X=              0.0000    Y=             -0.0000    Z=              7.0104  Tot=              7.0104
 Quadrupole moment (field-independent basis, Debye-Ang):
   XX=            -22.1620   YY=            -22.1620   ZZ=            -31.2494
   XY=              0.0000   XZ=              0.0000   YZ=             -0.0000

 1\1\GINC-C479-083\SP\ROCCSD(T)-RW\Gen\O1Ti1(3)\AANNABE\14-Mar-2018\0\\
 #P ROCCSD(T)=(maxcyc=150, Window=(7,0), SaveAmplitudes, ReadAmplitudes
 )/Gen 5d 7f SCF=(maxcycles=300) Integral(NoXCTest, DKHSO) MaxDisk=500G
 B Pop=Regular Guess=Read IOp(5/15=2)\\TiO\\0,3\Ti,0,0.,0.,0.\O,0,0.,0.
 ,1.9\\Version=ES64L-G16RevA.03\HF=-927.6513066\MP2=-928.3837016\MP3=-9
 28.3226519\PUHF=-927.6513066\PMP2-0=-928.3837016\MP4SDQ=-928.4167074\C
 CSD=-928.3628059\CCSD(T)=-928.4183847\RMSD=5.768e-09\PG=C*V [C*(O1Ti1)
 ]\\@

 Normal termination of Gaussian 16 at Wed Mar 14 14:23:35 2018.
