 Gaussian 16, Revision A.03,
 Gaussian 16:  ES64L-G16RevA.03 25-Dec-2016

 ----------------------------------------------------------------------
 #P ROCCSD(T)=(maxcyc=150, Full, SaveAmplitudes, ReadAmplitudes)/Gen 5d
  7f SCF=(maxcycles=300) Integral(NoXCTest) MaxDisk=500GB Pop=Regular P
 seudo=Read Guess=Read IOp(5/15=2)
 ----------------------------------------------------------------------

 ---
 ScO
 ---
 Symbolic Z-matrix:
 Charge =  0 Multiplicity = 2

                         Standard orientation:
 ---------------------------------------------------------------------
 Center     Atomic      Atomic             Coordinates (Angstroms)
 Number     Number       Type             X           Y           Z
 ---------------------------------------------------------------------
      1         21           0        0.000000    0.000000    0.303448
      2          8           0        0.000000    0.000000   -0.796552
 ---------------------------------------------------------------------

 SCF Done:  E(ROHF) =  -61.3202042379     A.U. after   18 cycles
 E2 =    -0.6383596842D+00 EUMP2 =    -0.61958563922069D+02
 CCSD(T)
 CCSD(T)= -0.61990504134D+02

 The electronic state is 2-SG.
 Alpha  occ. eigenvalues --   -2.70282  -1.86828  -1.54021  -1.54021  -1.04076
 Alpha  occ. eigenvalues --   -0.69584  -0.69584  -0.47187  -0.16512
 Alpha virt. eigenvalues --    0.00948   0.00948   0.01483   0.03001   0.03750
 Alpha virt. eigenvalues --    0.03750   0.03800   0.03800   0.03869   0.04925
 Alpha virt. eigenvalues --    0.04925   0.06746   0.11158   0.11158   0.11357

 Mulliken charges and spin densities:
               1          2
     1  Sc   1.014606   1.063128
     2  O   -1.014606  -0.063128
 Sum of Mulliken charges =  -0.00000   1.00000

 Dipole moment (field-independent basis, Debye):
    X=              0.0000    Y=              0.0000    Z=             -2.4655  Tot=              2.4655
 Quadrupole moment (field-independent basis, Debye-Ang):
   XX=            -24.5183   YY=            -24.5183   ZZ=            -28.5930
   XY=              0.0000   XZ=              0.0000   YZ=              0.0000

 \\#P ROCCSD(T)=(maxcyc=150, Full, SaveAmplitudes, ReadAmplitudes)/Gen
 16\CCSD=-61.9657082\CCSD(T)=-61.9905041\RMSD=4.413e-09\PG=C*V [C*(O1Sc
 Normal termination of Gaussian 16 at Tue Feb 20 19:57:20 2018.
