 Gaussian 16, Revision A.03,
 Gaussian 16:  ES64L-G16RevA.03 25-Dec-2016

 ----------------------------------------------------------------------
 #P ROCCSD(T)=(maxcyc=150, Window=(7,0), SaveAmplitudes, ReadAmplitudes
 )/Gen 5d 7f SCF=(maxcycles=300) Integral(NoXCTest, DKHSO) MaxDisk=500G
 B Pop=Regular Guess=Read IOp(5/15=2)
 ----------------------------------------------------------------------

 ---
 CrO
 ---
 Symbolic Z-matrix:
 Charge =  0 Multiplicity = 5

                         Standard orientation:
 ---------------------------------------------------------------------
 Center     Atomic      Atomic             Coordinates (Angstroms)
 Number     Number       Type             X           Y           Z
 ---------------------------------------------------------------------
      1         24           0        0.000000    0.000000    0.375000
      2          8           0        0.000000    0.000000   -1.125000
 ---------------------------------------------------------------------

 SCF Done:  E(ROHF) =  -1124.49631199     A.U. after   35 cycles
 E2 =    -0.8607734665D+00 EUMP2 =    -0.11253570854561D+04
 CCSD(T)
 CCSD(T)= -0.11253733721D+04

 Unable to determine electronic state:  an orbital has unidentified symmetry.
 Alpha  occ. eigenvalues -- -222.27615 -26.87361 -22.50742 -22.50656 -22.50170
 Alpha  occ. eigenvalues --  -20.51899  -3.70753  -2.47006  -2.43540  -2.41419
 Alpha  occ. eigenvalues --   -1.19925  -0.63380  -0.57458  -0.55944  -0.50446
 Alpha  occ. eigenvalues --   -0.48119  -0.39666  -0.30091
 Alpha virt. eigenvalues --    0.00754   0.01244   0.01915   0.03172   0.04637
 Alpha virt. eigenvalues --    0.04984   0.06325   0.07608   0.07617   0.08018
 Alpha virt. eigenvalues --    0.08434   0.08618   0.12863   0.14524   0.16731

 Mulliken charges and spin densities:
               1          2
     1  Cr   1.014893   3.830003
     2  O   -1.014893   0.169997
 Sum of Mulliken charges =  -0.00000   4.00000

 Dipole moment (field-independent basis, Debye):
    X=             -0.0000    Y=             -0.0000    Z=              4.4054  Tot=              4.4054
 Quadrupole moment (field-independent basis, Debye-Ang):
   XX=            -21.2035   YY=            -20.1040   ZZ=            -24.9264
   XY=              0.0000   XZ=             -0.0000   YZ=             -0.0000

 1\1\GINC-C484-093\SP\ROCCSD(T)-RW\Gen\Cr1O1(5)\AANNABE\14-Mar-2018\0\\
 #P ROCCSD(T)=(maxcyc=150, Window=(7,0), SaveAmplitudes, ReadAmplitudes
 )/Gen 5d 7f SCF=(maxcycles=300) Integral(NoXCTest, DKHSO) MaxDisk=500G
 B Pop=Regular Guess=Read IOp(5/15=2)\\CrO\\0,5\Cr,0,0.,0.,0.\O,0,0.,0.
 ,1.5\\Version=ES64L-G16RevA.03\HF=-1124.496312\MP2=-1125.3570855\MP3=-
 1125.2859963\PUHF=-1124.496312\PMP2-0=-1125.3570855\MP4SDQ=-1125.35895
 95\CCSD=-1125.326968\CCSD(T)=-1125.3733721\RMSD=7.903e-09\PG=C*V [C*(O
 1Cr1)]\\@

 Normal termination of Gaussian 16 at Wed Mar 14 14:25:47 2018.
