 Gaussian 16, Revision A.03,
 Gaussian 16:  ES64L-G16RevA.03 25-Dec-2016

 ----------------------------------------------------------------------
 #P ROCCSD(T)=(maxcyc=150, Full, SaveAmplitudes, ReadAmplitudes)/Gen 5d
  7f SCF=(maxcycles=300) Integral(NoXCTest) MaxDisk=500GB Pop=Regular P
 seudo=Read Guess=Read IOp(5/15=2)
 ----------------------------------------------------------------------

 ---
 CrO
 ---
 Symbolic Z-matrix:
 Charge =  0 Multiplicity = 5

                         Standard orientation:
 ---------------------------------------------------------------------
 Center     Atomic      Atomic             Coordinates (Angstroms)
 Number     Number       Type             X           Y           Z
 ---------------------------------------------------------------------
      1         24           0        0.000000    0.000000    0.300000
      2          8           0        0.000000    0.000000   -0.900000
 ---------------------------------------------------------------------

 SCF Done:  E(ROHF) =  -101.584377090     A.U. after   31 cycles
 E2 =    -0.8824989244D+00 EUMP2 =    -0.10246687601484D+03
 CCSD(T)
 CCSD(T)= -0.10247314105D+03

 Unable to determine electronic state:  an orbital has unidentified symmetry.
 Alpha  occ. eigenvalues --   -3.75873  -2.52153  -2.47664  -2.43911  -1.25874
 Alpha  occ. eigenvalues --   -0.75099  -0.69017  -0.65520  -0.50435  -0.50343
 Alpha  occ. eigenvalues --   -0.30313  -0.26240
 Alpha virt. eigenvalues --    0.01454   0.02450   0.02786   0.02819   0.05430
 Alpha virt. eigenvalues --    0.07021   0.07659   0.07742   0.07791   0.07793
 Alpha virt. eigenvalues --    0.09625   0.09982   0.12231   0.17879   0.20717

 Mulliken charges and spin densities:
               1          2
     1  Cr   0.890631   3.733922
     2  O   -0.890631   0.266078
 Sum of Mulliken charges =  -0.00000   4.00000

 Dipole moment (field-independent basis, Debye):
    X=              0.0000    Y=              0.0000    Z=              0.2522  Tot=              0.2522
 Quadrupole moment (field-independent basis, Debye-Ang):
   XX=            -22.8382   YY=            -20.0046   ZZ=            -22.9061
   XY=              0.0000   XZ=              0.0000   YZ=              0.0000

 \\#P ROCCSD(T)=(maxcyc=150, Full, SaveAmplitudes, ReadAmplitudes)/Gen
 =-102.4341551\CCSD(T)=-102.473141\RMSD=3.406e-09\PG=C*V [C*(O1Cr1)]\\@
 Normal termination of Gaussian 16 at Mon Mar 12 14:29:43 2018.
