 Gaussian 16, Revision A.03,
 Gaussian 16:  ES64L-G16RevA.03 25-Dec-2016

 ----------------------------------------------------------------------
 #P ROCCSD(T)=(MaxCyc=150, Full)/Gen SCF=(maxcycle=400) Pseudo=Read Int
 egral(NoXCTest) Pop=Regular MaxDisk=500GB Guess=Read IOp(5/15=2)
 ----------------------------------------------------------------------

 ---
 NiO
 ---
 Symbolic Z-matrix:
 Charge =  0 Multiplicity = 3

                         Standard orientation:
 ---------------------------------------------------------------------
 Center     Atomic      Atomic             Coordinates (Angstroms)
 Number     Number       Type             X           Y           Z
 ---------------------------------------------------------------------
      1         28           0        0.000000    0.000000    0.400000
      2          8           0        0.000000    0.000000   -1.400000
 ---------------------------------------------------------------------

 SCF Done:  E(ROHF) =  -185.638745314     A.U. after   22 cycles
 E2 =    -0.1147338444D+01 EUMP2 =    -0.18678608375853D+03
 CCSD(T)
 CCSD(T)= -0.18681982213D+03

 The electronic state is 3-SG.
 Alpha  occ. eigenvalues --   -5.20841  -3.58063  -3.49747  -3.49747  -1.15052
 Alpha  occ. eigenvalues --   -0.82223  -0.82223  -0.76610  -0.73464  -0.73464
 Alpha  occ. eigenvalues --   -0.38950  -0.38950  -0.35508
 Alpha virt. eigenvalues --   -0.05548   0.02056   0.02056   0.02123   0.04259
 Alpha virt. eigenvalues --    0.07632   0.07632   0.10635   0.11986   0.11986
 Alpha virt. eigenvalues --    0.13122   0.13122   0.15035   0.16014   0.25974

 Mulliken charges and spin densities:
               1          2
     1  Ni   0.979184   1.956710
     2  O   -0.979184   0.043290
 Sum of Mulliken charges =  -0.00000   2.00000

 Dipole moment (field-independent basis, Debye):
    X=              0.0000    Y=              0.0000    Z=              7.8917  Tot=              7.8917
 Quadrupole moment (field-independent basis, Debye-Ang):
   XX=            -18.7108   YY=            -18.7108   ZZ=            -22.2244
   XY=              0.0000   XZ=              0.0000   YZ=              0.0000

 \\#P ROCCSD(T)=(MaxCyc=150, Full)/Gen SCF=(maxcycle=400) Pseudo=Read I
 PMP2-0=-186.7860838\MP4SDQ=-186.7547758\CCSD=-186.7519046\CCSD(T)=-186
 Normal termination of Gaussian 16 at Tue Mar 27 11:06:19 2018.
