 Gaussian 16, Revision A.03,
 Gaussian 16:  ES64L-G16RevA.03 25-Dec-2016

 ----------------------------------------------------------------------
 #P ROCCSD(T)=(MaxCyc=150, Full)/Gen SCF=(maxcycle=400) Pseudo=Read Int
 egral(NoXCTest) Pop=Regular MaxDisk=500GB Guess=Read IOp(5/15=2)
 ----------------------------------------------------------------------

 ---
 NiO
 ---
 Symbolic Z-matrix:
 Charge =  0 Multiplicity = 3

                         Standard orientation:
 ---------------------------------------------------------------------
 Center     Atomic      Atomic             Coordinates (Angstroms)
 Number     Number       Type             X           Y           Z
 ---------------------------------------------------------------------
      1         28           0        0.000000    0.000000    0.400000
      2          8           0        0.000000    0.000000   -1.400000
 ---------------------------------------------------------------------

 SCF Done:  E(ROHF) =  -185.642479489     A.U. after   18 cycles
 E2 =    -0.1203961046D+01 EUMP2 =    -0.18684644053475D+03
 CCSD(T)
 CCSD(T)= -0.18687857698D+03

 The electronic state is 3-SG.
 Alpha  occ. eigenvalues --   -5.20833  -3.58043  -3.49732  -3.49732  -1.15003
 Alpha  occ. eigenvalues --   -0.82217  -0.82217  -0.76601  -0.73460  -0.73460
 Alpha  occ. eigenvalues --   -0.38971  -0.38971  -0.35490
 Alpha virt. eigenvalues --   -0.05534   0.01730   0.01730   0.01869   0.03854
 Alpha virt. eigenvalues --    0.06620   0.06620   0.07633   0.07927   0.07927
 Alpha virt. eigenvalues --    0.08829   0.08829   0.12419   0.14906   0.21610

 Mulliken charges and spin densities:
               1          2
     1  Ni   0.932337   1.956706
     2  O   -0.932337   0.043294
 Sum of Mulliken charges =  -0.00000   2.00000

 Dipole moment (field-independent basis, Debye):
    X=              0.0000    Y=              0.0000    Z=              7.8744  Tot=              7.8744
 Quadrupole moment (field-independent basis, Debye-Ang):
   XX=            -18.7014   YY=            -18.7014   ZZ=            -22.2096
   XY=              0.0000   XZ=              0.0000   YZ=              0.0000

 \\#P ROCCSD(T)=(MaxCyc=150, Full)/Gen SCF=(maxcycle=400) Pseudo=Read I
 PMP2-0=-186.8464405\MP4SDQ=-186.8093676\CCSD=-186.8077282\CCSD(T)=-186
 Normal termination of Gaussian 16 at Tue Mar 27 13:38:01 2018.
