 Gaussian 16, Revision A.03,
 Gaussian 16:  ES64L-G16RevA.03 25-Dec-2016

 ----------------------------------------------------------------------
 #P ROCCSD(T)=(maxcyc=150, Full, SaveAmplitudes, ReadAmplitudes)/Gen 5d
  7f SCF=(maxcycles=300) Integral(NoXCTest) MaxDisk=500GB Pop=Regular P
 seudo=Read Guess=Read IOp(5/15=2)
 ----------------------------------------------------------------------

 ---
 TiO
 ---
 Symbolic Z-matrix:
 Charge =  0 Multiplicity = 3

                         Standard orientation:
 ---------------------------------------------------------------------
 Center     Atomic      Atomic             Coordinates (Angstroms)
 Number     Number       Type             X           Y           Z
 ---------------------------------------------------------------------
      1         22           0        0.000000    0.000000    0.346667
      2          8           0        0.000000    0.000000   -0.953333
 ---------------------------------------------------------------------

 SCF Done:  E(ROHF) =  -73.2644531611     A.U. after   23 cycles
 E2 =    -0.7321383007D+00 EUMP2 =    -0.73996591461795D+02
 CCSD(T)
 CCSD(T)= -0.74021597919D+02

 Unable to determine electronic state:  an orbital has unidentified symmetry.
 Alpha  occ. eigenvalues --   -2.94438  -1.96089  -1.82545  -1.82545  -1.14685
 Alpha  occ. eigenvalues --   -0.59239  -0.59239  -0.52545  -0.35857  -0.21610
 Alpha virt. eigenvalues --    0.01189   0.01189   0.02317   0.02555   0.04812
 Alpha virt. eigenvalues --    0.04812   0.05011   0.05164   0.05326   0.05795
 Alpha virt. eigenvalues --    0.05795   0.08526   0.11841   0.13724   0.14629

 Mulliken charges and spin densities:
               1          2
     1  Ti   0.693816   2.041542
     2  O   -0.693816  -0.041542
 Sum of Mulliken charges =  -0.00000   2.00000

 Dipole moment (field-independent basis, Debye):
    X=              0.0000    Y=              0.0000    Z=              0.6122  Tot=              0.6122
 Quadrupole moment (field-independent basis, Debye-Ang):
   XX=            -22.0337   YY=            -22.0337   ZZ=            -27.1249
   XY=              0.0000   XZ=              0.0000   YZ=              0.0000

 \\#P ROCCSD(T)=(maxcyc=150, Full, SaveAmplitudes, ReadAmplitudes)/Gen
 .9870855\CCSD(T)=-74.0215979\RMSD=2.116e-09\PG=C*V [C*(O1Ti1)]\\@
 Normal termination of Gaussian 16 at Sat Mar 10 00:58:03 2018.
