 Gaussian 16, Revision A.03,
 Gaussian 16:  ES64L-G16RevA.03 25-Dec-2016

 ----------------------------------------------------------------------
 #P ROCCSD(T)=(MaxCyc=150, Full)/Gen SCF=(maxcycle=400) Pseudo=Read Int
 egral(NoXCTest) Pop=Regular MaxDisk=500GB Guess=Read IOp(5/15=2)
 ----------------------------------------------------------------------

 ---
 NiO
 ---
 Symbolic Z-matrix:
 Charge =  0 Multiplicity = 3

                         Standard orientation:
 ---------------------------------------------------------------------
 Center     Atomic      Atomic             Coordinates (Angstroms)
 Number     Number       Type             X           Y           Z
 ---------------------------------------------------------------------
      1         28           0        0.000000    0.000000    0.333333
      2          8           0        0.000000    0.000000   -1.166667
 ---------------------------------------------------------------------

 SCF Done:  E(ROHF) =  -185.627241458     A.U. after   20 cycles
 E2 =    -0.1244988329D+01 EUMP2 =    -0.18687222978681D+03
 CCSD(T)
 CCSD(T)= -0.18688406379D+03

 The electronic state is 3-SG.
 Alpha  occ. eigenvalues --   -5.17447  -3.54956  -3.46035  -3.46035  -1.20366
 Alpha  occ. eigenvalues --   -0.79867  -0.79867  -0.72066  -0.69873  -0.69873
 Alpha  occ. eigenvalues --   -0.39480  -0.39480  -0.37687
 Alpha virt. eigenvalues --   -0.04321   0.02052   0.02052   0.02255   0.03860
 Alpha virt. eigenvalues --    0.07143   0.07143   0.07610   0.08096   0.08096
 Alpha virt. eigenvalues --    0.09398   0.09398   0.12992   0.15204   0.22352

 Mulliken charges and spin densities:
               1          2
     1  Ni   0.975298   1.845253
     2  O   -0.975298   0.154747
 Sum of Mulliken charges =  -0.00000   2.00000

 Dipole moment (field-independent basis, Debye):
    X=              0.0000    Y=              0.0000    Z=              7.4128  Tot=              7.4128
 Quadrupole moment (field-independent basis, Debye-Ang):
   XX=            -18.1009   YY=            -18.1009   ZZ=            -20.1481
   XY=              0.0000   XZ=              0.0000   YZ=              0.0000

 \\#P ROCCSD(T)=(MaxCyc=150, Full)/Gen SCF=(maxcycle=400) Pseudo=Read I
 MP2-0=-186.8722298\MP4SDQ=-186.8415777\CCSD=-186.8238251\CCSD(T)=-186.
 Normal termination of Gaussian 16 at Tue Mar 27 13:44:37 2018.
