 Gaussian 16, Revision A.03,
 Gaussian 16:  ES64L-G16RevA.03 25-Dec-2016

 ----------------------------------------------------------------------
 #P ROCCSD(T)=(MaxCyc=150, Full)/Gen SCF=(maxcycle=400) Pseudo=Read Int
 egral(NoXCTest) Pop=Regular MaxDisk=500GB Guess=Read IOp(5/15=2)
 ----------------------------------------------------------------------

 ---
 NiO
 ---
 Symbolic Z-matrix:
 Charge =  0 Multiplicity = 3

                         Standard orientation:
 ---------------------------------------------------------------------
 Center     Atomic      Atomic             Coordinates (Angstroms)
 Number     Number       Type             X           Y           Z
 ---------------------------------------------------------------------
      1         28           0        0.000000    0.000000    0.333333
      2          8           0        0.000000    0.000000   -1.166667
 ---------------------------------------------------------------------

 SCF Done:  E(ROHF) =  -185.623390497     A.U. after   22 cycles
 E2 =    -0.1187533019D+01 EUMP2 =    -0.18681092351621D+03
 CCSD(T)
 CCSD(T)= -0.18682513009D+03

 The electronic state is 3-SG.
 Alpha  occ. eigenvalues --   -5.17453  -3.54977  -3.46049  -3.46049  -1.20428
 Alpha  occ. eigenvalues --   -0.79871  -0.79871  -0.72075  -0.69874  -0.69874
 Alpha  occ. eigenvalues --   -0.39477  -0.39477  -0.37695
 Alpha virt. eigenvalues --   -0.04330   0.02433   0.02433   0.02554   0.04266
 Alpha virt. eigenvalues --    0.08536   0.08536   0.10761   0.12336   0.12336
 Alpha virt. eigenvalues --    0.13260   0.13260   0.15567   0.16457   0.26408

 Mulliken charges and spin densities:
               1          2
     1  Ni   1.130227   1.842042
     2  O   -1.130227   0.157958
 Sum of Mulliken charges =  -0.00000   2.00000

 Dipole moment (field-independent basis, Debye):
    X=              0.0000    Y=              0.0000    Z=              7.4254  Tot=              7.4254
 Quadrupole moment (field-independent basis, Debye-Ang):
   XX=            -18.1091   YY=            -18.1091   ZZ=            -20.1630
   XY=              0.0000   XZ=              0.0000   YZ=              0.0000

 \\#P ROCCSD(T)=(MaxCyc=150, Full)/Gen SCF=(maxcycle=400) Pseudo=Read I
 MP2-0=-186.8109235\MP4SDQ=-186.786003\CCSD=-186.7674548\CCSD(T)=-186.8
 Normal termination of Gaussian 16 at Tue Mar 27 11:05:50 2018.
