 Gaussian 16, Revision A.03,
 Gaussian 16:  ES64L-G16RevA.03 25-Dec-2016

 ----------------------------------------------------------------------
 #P ROCCSD(T)=(maxcyc=150, Full, SaveAmplitudes, ReadAmplitudes)/Gen 5d
  7f SCF=(maxcycles=300) Integral(NoXCTest) MaxDisk=500GB Pop=Regular P
 seudo=Read Guess=Read
 ----------------------------------------------------------------------

 ---
 CrO
 ---
 Symbolic Z-matrix:
 Charge =  0 Multiplicity = 5

                         Standard orientation:
 ---------------------------------------------------------------------
 Center     Atomic      Atomic             Coordinates (Angstroms)
 Number     Number       Type             X           Y           Z
 ---------------------------------------------------------------------
      1         24           0        0.000000    0.000000    0.475000
      2          8           0        0.000000    0.000000   -1.425000
 ---------------------------------------------------------------------

 SCF Done:  E(ROHF) =  -101.852513745     A.U. after   27 cycles
 E2 =    -0.8830441492D+00 EUMP2 =    -0.10273555789457D+03
 CCSD(T)
 CCSD(T)= -0.10278966321D+03

 Unable to determine electronic state:  an orbital has unidentified symmetry.
 Alpha  occ. eigenvalues --   -3.78488  -2.53656  -2.48605  -2.47834  -1.08597
 Alpha  occ. eigenvalues --   -0.59149  -0.56849  -0.56683  -0.53998  -0.33266
 Alpha  occ. eigenvalues --   -0.32766  -0.31857
 Alpha virt. eigenvalues --   -0.05260   0.00429   0.01004   0.01149   0.03065
 Alpha virt. eigenvalues --    0.04265   0.05143   0.05143   0.05415   0.06119
 Alpha virt. eigenvalues --    0.06160   0.06360   0.10169   0.11229   0.12078

 Mulliken charges and spin densities:
               1          2
     1  Cr   1.101983   3.965406
     2  O   -1.101983   0.034594
 Sum of Mulliken charges =  -0.00000   4.00000

 Dipole moment (field-independent basis, Debye):
    X=              0.0000    Y=              0.0000    Z=             10.1713  Tot=             10.1713
 Quadrupole moment (field-independent basis, Debye-Ang):
   XX=            -19.7505   YY=            -19.0693   ZZ=            -24.9599
   XY=              0.0000   XZ=              0.0000   YZ=              0.0000

 \\#P ROCCSD(T)=(maxcyc=150, Full, SaveAmplitudes, ReadAmplitudes)/Gen
 MP2-0=-102.7355579\CCSD=-102.7334794\CCSD(T)=-102.7896632\RMSD=5.276e-
 Normal termination of Gaussian 16 at Tue Mar 13 20:28:30 2018.
