 Gaussian 16, Revision A.03,
 Gaussian 16:  ES64L-G16RevA.03 25-Dec-2016

 ----------------------------------------------------------------------
 #P ROCCSD(T)=(maxcyc=150, Full, SaveAmplitudes, ReadAmplitudes)/Gen 5d
  7f SCF=(maxcycles=300) Integral(NoXCTest) MaxDisk=500GB Pop=Regular P
 seudo=Read Guess=Read IOp(5/15=2)
 ----------------------------------------------------------------------

 ---
 ScO
 ---
 Symbolic Z-matrix:
 Charge =  0 Multiplicity = 2

                         Standard orientation:
 ---------------------------------------------------------------------
 Center     Atomic      Atomic             Coordinates (Angstroms)
 Number     Number       Type             X           Y           Z
 ---------------------------------------------------------------------
      1         21           0        0.000000    0.000000    0.413793
      2          8           0        0.000000    0.000000   -1.086207
 ---------------------------------------------------------------------

 SCF Done:  E(ROHF) =  -61.9115947224     A.U. after   16 cycles
 E2 =    -0.6764120061D+00 EUMP2 =    -0.62588006728480D+02
 CCSD(T)
 CCSD(T)= -0.62615452500D+02

 The electronic state is 2-SG.
 Alpha  occ. eigenvalues --   -2.60187  -1.68583  -1.58122  -1.58122  -1.11599
 Alpha  occ. eigenvalues --   -0.47986  -0.47986  -0.45041  -0.22518
 Alpha virt. eigenvalues --    0.00605   0.00605   0.01963   0.02281   0.03704
 Alpha virt. eigenvalues --    0.03704   0.03845   0.03845   0.04115   0.04326
 Alpha virt. eigenvalues --    0.04326   0.06613   0.09771   0.09771   0.10902

 Mulliken charges and spin densities:
               1          2
     1  Sc   1.285475   0.978418
     2  O   -1.285475   0.021582
 Sum of Mulliken charges =  -0.00000   1.00000

 Dipole moment (field-independent basis, Debye):
    X=              0.0000    Y=              0.0000    Z=              2.7268  Tot=              2.7268
 Quadrupole moment (field-independent basis, Debye-Ang):
   XX=            -22.0347   YY=            -22.0347   ZZ=            -31.0959
   XY=              0.0000   XZ=              0.0000   YZ=              0.0000

 \\#P ROCCSD(T)=(maxcyc=150, Full, SaveAmplitudes, ReadAmplitudes)/Gen
 25\CCSD=-62.5803281\CCSD(T)=-62.6154525\RMSD=3.203e-09\PG=C*V [C*(O1Sc
 Normal termination of Gaussian 16 at Wed Feb 21 01:14:54 2018.
