 Gaussian 16, Revision A.03,
 Gaussian 16:  ES64L-G16RevA.03 25-Dec-2016

 ----------------------------------------------------------------------
 #P ROCCSD(T)=(maxcyc=150, Full, SaveAmplitudes, ReadAmplitudes)/Gen 5d
  7f SCF=(maxcycles=300) Integral(NoXCTest) MaxDisk=500GB Pop=Regular P
 seudo=Read Guess=Read
 ----------------------------------------------------------------------

 ---
 CrH
 ---
 Symbolic Z-matrix:
 Charge =  0 Multiplicity = 6

                         Standard orientation:
 ---------------------------------------------------------------------
 Center     Atomic      Atomic             Coordinates (Angstroms)
 Number     Number       Type             X           Y           Z
 ---------------------------------------------------------------------
      1         24           0        0.000000    0.000000    0.072000
      2          1           0        0.000000    0.000000   -1.728000
 ---------------------------------------------------------------------

 SCF Done:  E(ROHF) =  -86.8815557804     A.U. after   22 cycles
 E2 =    -0.5562323409D+00 EUMP2 =    -0.87437788121230D+02
 CCSD(T)
 CCSD(T)= -0.87486526424D+02

 The electronic state is 6-SG.
 Alpha  occ. eigenvalues --   -3.75907  -2.45836  -2.45836  -2.40997  -0.56123
 Alpha  occ. eigenvalues --   -0.56123  -0.52750  -0.52750  -0.39716  -0.26345
 Alpha virt. eigenvalues --    0.01189   0.01189   0.01937   0.02429   0.04604
 Alpha virt. eigenvalues --    0.04963   0.04963   0.05316   0.05316   0.05660
 Alpha virt. eigenvalues --    0.05660   0.06820   0.09582   0.12378   0.16669

 Mulliken charges and spin densities:
               1          2
     1  Cr   0.320997   4.978255
     2  H   -0.320997   0.021745
 Sum of Mulliken charges =  -0.00000   5.00000

 Dipole moment (field-independent basis, Debye):
    X=              0.0000    Y=              0.0000    Z=              2.4275  Tot=              2.4275
 Quadrupole moment (field-independent basis, Debye-Ang):
   XX=            -16.9908   YY=            -16.9908   ZZ=            -25.0065
   XY=              0.0000   XZ=              0.0000   YZ=              0.0000

 \\#P ROCCSD(T)=(maxcyc=150, Full, SaveAmplitudes, ReadAmplitudes)/Gen
 815558\PMP2-0=-87.4377881\CCSD=-87.4693997\CCSD(T)=-87.4865264\RMSD=4.
 Normal termination of Gaussian 16 at Mon Feb 26 13:39:01 2018.
