 Gaussian 16, Revision A.03,
 Gaussian 16:  ES64L-G16RevA.03 25-Dec-2016

 ----------------------------------------------------------------------
 #P ROCCSD(T)=(maxcyc=150, Full, SaveAmplitudes, ReadAmplitudes)/Gen 5d
  7f SCF=(maxcycles=300) Integral(NoXCTest) MaxDisk=500GB Pop=Regular P
 seudo=Read Guess=Read
 ----------------------------------------------------------------------

 ---
 MnO
 ---
 Symbolic Z-matrix:
 Charge =  0 Multiplicity = 6

                         Standard orientation:
 ---------------------------------------------------------------------
 Center     Atomic      Atomic             Coordinates (Angstroms)
 Number     Number       Type             X           Y           Z
 ---------------------------------------------------------------------
      1         25           0        0.000000    0.000000    0.436364
      2          8           0        0.000000    0.000000   -1.363636
 ---------------------------------------------------------------------

 SCF Done:  E(ROHF) =  -119.373456165     A.U. after   24 cycles
 E2 =    -0.9506871148D+00 EUMP2 =    -0.12032414327946D+03
 CCSD(T)
 CCSD(T)= -0.12035043225D+03

 The electronic state is 6-SG.
 Alpha  occ. eigenvalues --   -4.10182  -2.76558  -2.76558  -2.76124  -1.08715
 Alpha  occ. eigenvalues --   -0.64964  -0.64964  -0.64715  -0.64715  -0.61650
 Alpha  occ. eigenvalues --   -0.33587  -0.33587  -0.33287
 Alpha virt. eigenvalues --   -0.05397   0.01159   0.01159   0.01366   0.03357
 Alpha virt. eigenvalues --    0.05658   0.05658   0.05713   0.05713   0.06388
 Alpha virt. eigenvalues --    0.06894   0.06894   0.10945   0.12556   0.17822

 Mulliken charges and spin densities:
               1          2
     1  Mn   1.135917   4.939972
     2  O   -1.135917   0.060028
 Sum of Mulliken charges =  -0.00000   5.00000

 Dipole moment (field-independent basis, Debye):
    X=              0.0000    Y=              0.0000    Z=              9.5228  Tot=              9.5228
 Quadrupole moment (field-independent basis, Debye-Ang):
   XX=            -18.9521   YY=            -18.9521   ZZ=            -24.4392
   XY=              0.0000   XZ=              0.0000   YZ=              0.0000

 \\#P ROCCSD(T)=(maxcyc=150, Full, SaveAmplitudes, ReadAmplitudes)/Gen
 9.3734562\PMP2-0=-120.3241433\CCSD=-120.3069767\CCSD(T)=-120.3504322\R
 Normal termination of Gaussian 16 at Tue Mar 13 14:22:43 2018.
