 Gaussian 16, Revision A.03,
 Gaussian 16:  ES64L-G16RevA.03 25-Dec-2016

 ----------------------------------------------------------------------
 #P ROCCSD(T)=(MaxCyc=150, Full)/Gen SCF=(maxcycle=400) Pseudo=Read Int
 egral(NoXCTest) Pop=Regular MaxDisk=500GB Guess=Read IOp(5/15=2)
 ----------------------------------------------------------------------

 ---
 CuO
 ---
 Symbolic Z-matrix:
 Charge =  0 Multiplicity = 2

                         Standard orientation:
 ---------------------------------------------------------------------
 Center     Atomic      Atomic             Coordinates (Angstroms)
 Number     Number       Type             X           Y           Z
 ---------------------------------------------------------------------
      1         29           0        0.000000    0.000000    0.259459
      2          8           0        0.000000    0.000000   -0.940541
 ---------------------------------------------------------------------

 SCF Done:  E(ROHF) =  -211.572371476     A.U. after   28 cycles
 E2 =    -0.1404557239D+01 EUMP2 =    -0.21297692871580D+03
 CCSD(T)
 CCSD(T)= -0.21288087525D+03

 Unable to determine electronic state:  an orbital has unidentified symmetry.
 Alpha  occ. eigenvalues --   -5.23125  -3.69030  -3.62907  -3.57958  -1.35512
 Alpha  occ. eigenvalues --   -0.88710  -0.84849  -0.76281  -0.71772  -0.71324
 Alpha  occ. eigenvalues --   -0.49627  -0.45952  -0.35665
 Alpha virt. eigenvalues --    0.00316   0.03141   0.03271   0.03778   0.05232
 Alpha virt. eigenvalues --    0.10720   0.11188   0.13317   0.18752   0.19904
 Alpha virt. eigenvalues --    0.19906   0.21088   0.21372   0.21553   0.25611

 Mulliken charges and spin densities:
               1          2
     1  Cu   0.927747   0.525310
     2  O   -0.927747   0.474690
 Sum of Mulliken charges =   0.00000   1.00000

 Dipole moment (field-independent basis, Debye):
    X=              0.0000    Y=              0.0000    Z=              3.4775  Tot=              3.4775
 Quadrupole moment (field-independent basis, Debye-Ang):
   XX=            -17.7559   YY=            -18.8582   ZZ=            -18.3579
   XY=              0.0000   XZ=              0.0000   YZ=              0.0000

 \\#P ROCCSD(T)=(MaxCyc=150, Full)/Gen SCF=(maxcycle=400) Pseudo=Read I
 .9769287\MP4SDQ=-212.9017782\CCSD=-212.8274691\CCSD(T)=-212.8808752\RM
 Normal termination of Gaussian 16 at Sun Mar 25 23:45:06 2018.
