 Gaussian 16, Revision A.03,
 Gaussian 16:  ES64L-G16RevA.03 25-Dec-2016

 ----------------------------------------------------------------------
 #P ROCCSD(T)=(MaxCyc=150, Full)/Gen SCF=(maxcycle=400) Pseudo=Read Int
 egral(NoXCTest) Pop=Regular MaxDisk=500GB Guess=Read IOp(5/15=2)
 ----------------------------------------------------------------------

 ---
 CuO
 ---
 Symbolic Z-matrix:
 Charge =  0 Multiplicity = 2

                         Standard orientation:
 ---------------------------------------------------------------------
 Center     Atomic      Atomic             Coordinates (Angstroms)
 Number     Number       Type             X           Y           Z
 ---------------------------------------------------------------------
      1         29           0        0.000000    0.000000    0.259459
      2          8           0        0.000000    0.000000   -0.940541
 ---------------------------------------------------------------------

 SCF Done:  E(ROHF) =  -211.577841840     A.U. after   22 cycles
 E2 =    -0.1468505450D+01 EUMP2 =    -0.21304634728944D+03
 CCSD(T)
 CCSD(T)= -0.21294781111D+03

 Unable to determine electronic state:  an orbital has unidentified symmetry.
 Alpha  occ. eigenvalues --   -5.23071  -3.68969  -3.62859  -3.57916  -1.35455
 Alpha  occ. eigenvalues --   -0.88714  -0.84858  -0.76268  -0.71771  -0.71322
 Alpha  occ. eigenvalues --   -0.49635  -0.45963  -0.35638
 Alpha virt. eigenvalues --    0.00286   0.02771   0.02875   0.03427   0.04889
 Alpha virt. eigenvalues --    0.09333   0.09714   0.11946   0.13785   0.13787
 Alpha virt. eigenvalues --    0.13809   0.14027   0.14261   0.18360   0.22101

 Mulliken charges and spin densities:
               1          2
     1  Cu   0.652750   0.543297
     2  O   -0.652750   0.456703
 Sum of Mulliken charges =   0.00000   1.00000

 Dipole moment (field-independent basis, Debye):
    X=              0.0000    Y=              0.0000    Z=              3.4643  Tot=              3.4643
 Quadrupole moment (field-independent basis, Debye-Ang):
   XX=            -17.7498   YY=            -18.8399   ZZ=            -18.3640
   XY=              0.0000   XZ=              0.0000   YZ=              0.0000

 \\#P ROCCSD(T)=(MaxCyc=150, Full)/Gen SCF=(maxcycle=400) Pseudo=Read I
 0463473\MP4SDQ=-212.9646981\CCSD=-212.891689\CCSD(T)=-212.9478111\RMSD
 Normal termination of Gaussian 16 at Mon Mar 26 02:08:16 2018.
