 Gaussian 16, Revision A.03,
 Gaussian 16:  ES64L-G16RevA.03 25-Dec-2016

 ----------------------------------------------------------------------
 #P ROCCSD(T)=(maxcyc=150, Full, SaveAmplitudes, ReadAmplitudes)/Gen 5d
  7f SCF=(maxcycles=300) Integral(NoXCTest) MaxDisk=500GB Pop=Regular P
 seudo=Read Guess=Read IOp(5/15=2)
 ----------------------------------------------------------------------

 ---
 MnH
 ---
 Symbolic Z-matrix:
 Charge =  0 Multiplicity = 7

                         Standard orientation:
 ---------------------------------------------------------------------
 Center     Atomic      Atomic             Coordinates (Angstroms)
 Number     Number       Type             X           Y           Z
 ---------------------------------------------------------------------
      1         25           0        0.000000    0.000000    0.065385
      2          1           0        0.000000    0.000000   -1.634615
 ---------------------------------------------------------------------

 SCF Done:  E(ROHF) =  -104.243399512     A.U. after   24 cycles
 E2 =    -0.5734476441D+00 EUMP2 =    -0.10481684715583D+03
 CCSD(T)
 CCSD(T)= -0.10483913066D+03

 The electronic state is 7-SG.
 Alpha  occ. eigenvalues --   -4.17695  -2.76647  -2.76647  -2.76461  -0.65193
 Alpha  occ. eigenvalues --   -0.65193  -0.64970  -0.64521  -0.64521  -0.40937
 Alpha  occ. eigenvalues --   -0.26048
 Alpha virt. eigenvalues --    0.01280   0.01280   0.02324   0.03129   0.05769
 Alpha virt. eigenvalues --    0.05769   0.08290   0.08469   0.08469   0.08942
 Alpha virt. eigenvalues --    0.08942   0.09777   0.13874   0.19694   0.22759

 Mulliken charges and spin densities:
               1          2
     1  Mn   0.432407   5.957480
     2  H   -0.432407   0.042520
 Sum of Mulliken charges =  -0.00000   6.00000

 Dipole moment (field-independent basis, Debye):
    X=              0.0000    Y=              0.0000    Z=              1.3256  Tot=              1.3256
 Quadrupole moment (field-independent basis, Debye-Ang):
   XX=            -16.1035   YY=            -16.1035   ZZ=            -26.2779
   XY=              0.0000   XZ=              0.0000   YZ=              0.0000

 \\#P ROCCSD(T)=(maxcyc=150, Full, SaveAmplitudes, ReadAmplitudes)/Gen
 .8227922\CCSD=-104.8235212\CCSD(T)=-104.8391307\RMSD=6.670e-09\PG=C*V
 Normal termination of Gaussian 16 at Mon Feb 26 11:09:42 2018.
