 Gaussian 16, Revision A.03,
 Gaussian 16:  ES64L-G16RevA.03 25-Dec-2016

 ----------------------------------------------------------------------
 #P ROCCSD(T)=(maxcyc=150, Full, SaveAmplitudes, ReadAmplitudes)/Gen 5d
  7f SCF=(maxcycles=300) Integral(NoXCTest) MaxDisk=500GB Pop=Regular P
 seudo=Read Guess=Read IOp(5/15=2)
 ----------------------------------------------------------------------

 ---
 TiO
 ---
 Symbolic Z-matrix:
 Charge =  0 Multiplicity = 3

                         Standard orientation:
 ---------------------------------------------------------------------
 Center     Atomic      Atomic             Coordinates (Angstroms)
 Number     Number       Type             X           Y           Z
 ---------------------------------------------------------------------
      1         22           0        0.000000    0.000000    0.506667
      2          8           0        0.000000    0.000000   -1.393333
 ---------------------------------------------------------------------

 SCF Done:  E(ROHF) =  -73.3422204420     A.U. after   23 cycles
 E2 =    -0.7568203091D+00 EUMP2 =    -0.74099040751135D+02
 CCSD(T)
 CCSD(T)= -0.74136745029D+02

 Unable to determine electronic state:  an orbital has unidentified symmetry.
 Alpha  occ. eigenvalues --   -3.09059  -1.97716  -1.97716  -1.93121  -1.12340
 Alpha  occ. eigenvalues --   -0.52674  -0.41371  -0.37370  -0.37370  -0.29796
 Alpha virt. eigenvalues --   -0.00942  -0.00942   0.00024   0.01965   0.03326
 Alpha virt. eigenvalues --    0.03326   0.03716   0.04459   0.05028   0.05951
 Alpha virt. eigenvalues --    0.05951   0.06101   0.07494   0.10485   0.10485

 Mulliken charges and spin densities:
               1          2
     1  Ti   0.962137   1.985978
     2  O   -0.962137   0.014022
 Sum of Mulliken charges =  -0.00000   2.00000

 Dipole moment (field-independent basis, Debye):
    X=              0.0000    Y=              0.0000    Z=              7.0533  Tot=              7.0533
 Quadrupole moment (field-independent basis, Debye-Ang):
   XX=            -21.7262   YY=            -21.7262   ZZ=            -30.6373
   XY=              0.0000   XZ=              0.0000   YZ=              0.0000

 \\#P ROCCSD(T)=(maxcyc=150, Full, SaveAmplitudes, ReadAmplitudes)/Gen
 .0795256\CCSD(T)=-74.136745\RMSD=5.367e-09\PG=C*V [C*(O1Ti1)]\\@
 Normal termination of Gaussian 16 at Sun Mar 11 06:03:59 2018.
