 Gaussian 16, Revision A.03,
 Gaussian 16:  ES64L-G16RevA.03 25-Dec-2016

 ----------------------------------------------------------------------
 #P ROCCSD(T)=(maxcyc=100, Full)/Gen SCF=(maxcycle=400, symm) Pseudo=Re
 ad Integral(NoXCTest) Pop=Regular MaxDisk=500GB Guess=Permute IOp(5/15
 =2)
 ----------------------------------------------------------------------

 ---
 FeH
 ---
 Symbolic Z-matrix:
 Charge =  0 Multiplicity = 4

                         Standard orientation:
 ---------------------------------------------------------------------
 Center     Atomic      Atomic             Coordinates (Angstroms)
 Number     Number       Type             X           Y           Z
 ---------------------------------------------------------------------
      1         26           0        0.000000    0.000000    0.066667
      2          1           0        0.000000    0.000000   -1.733333
 ---------------------------------------------------------------------

 SCF Done:  E(ROHF) =  -123.498521087     A.U. after   54 cycles
 E2 =    -0.7840403732D+00 EUMP2 =    -0.12428256146010D+03
 CCSD(T)
 CCSD(T)= -0.12428792151D+03

 Unable to determine electronic state:  an orbital has unidentified symmetry.
 Alpha  occ. eigenvalues --   -4.36816  -2.79341  -2.79067  -2.79067  -0.48854
 Alpha  occ. eigenvalues --   -0.48854  -0.48576  -0.43593  -0.42891  -0.31763
 Alpha virt. eigenvalues --   -0.00871   0.02129   0.02129   0.03089   0.03582
 Alpha virt. eigenvalues --    0.06215   0.06712   0.06727   0.06873   0.06873
 Alpha virt. eigenvalues --    0.07707   0.07707   0.10174   0.15697   0.17735

 Mulliken charges and spin densities:
               1          2
     1  Fe   0.357032   2.999523
     2  H   -0.357032   0.000477
 Sum of Mulliken charges =  -0.00000   3.00000

 Dipole moment (field-independent basis, Debye):
    X=              0.0000    Y=              0.0000    Z=              4.9858  Tot=              4.9858
 Quadrupole moment (field-independent basis, Debye-Ang):
   XX=            -15.3359   YY=            -15.3359   ZZ=            -19.0584
   XY=              0.0000   XZ=              0.0000   YZ=              0.0000

 \\#P ROCCSD(T)=(maxcyc=100, Full)/Gen SCF=(maxcycle=400, symm) Pseudo=
 2604294\CCSD(T)=-124.2879215\RMSD=7.808e-09\PG=C*V [C*(H1Fe1)]\\@
 Normal termination of Gaussian 16 at Mon Feb 12 21:00:55 2018.
