 Gaussian 16, Revision A.03,
 Gaussian 16:  ES64L-G16RevA.03 25-Dec-2016

 ----------------------------------------------------------------------
 #P ROCCSD(T)=(maxcyc=100, Full)/Gen SCF=(maxcycle=400, symm) Pseudo=Re
 ad Integral(NoXCTest) Pop=Regular MaxDisk=500GB Guess=Permute IOp(5/15
 =2)
 ----------------------------------------------------------------------

 ---
 FeH
 ---
 Symbolic Z-matrix:
 Charge =  0 Multiplicity = 4

                         Standard orientation:
 ---------------------------------------------------------------------
 Center     Atomic      Atomic             Coordinates (Angstroms)
 Number     Number       Type             X           Y           Z
 ---------------------------------------------------------------------
      1         26           0        0.000000    0.000000    0.066667
      2          1           0        0.000000    0.000000   -1.733333
 ---------------------------------------------------------------------

 SCF Done:  E(ROHF) =  -123.502722520     A.U. after   27 cycles
 E2 =    -0.7485583922D+00 EUMP2 =    -0.12425128091195D+03
 CCSD(T)
 CCSD(T)= -0.12425864076D+03

 Unable to determine electronic state:  an orbital has unidentified symmetry.
 Alpha  occ. eigenvalues --   -4.36980  -2.79312  -2.79035  -2.79035  -0.48850
 Alpha  occ. eigenvalues --   -0.48850  -0.48570  -0.43585  -0.42877  -0.31764
 Alpha virt. eigenvalues --   -0.00860   0.02369   0.02369   0.03374   0.03860
 Alpha virt. eigenvalues --    0.08405   0.08405   0.09471   0.10104   0.10145
 Alpha virt. eigenvalues --    0.10381   0.10381   0.11023   0.17034   0.22763

 Mulliken charges and spin densities:
               1          2
     1  Fe   0.426074   2.998582
     2  H   -0.426074   0.001418
 Sum of Mulliken charges =  -0.00000   3.00000

 Dipole moment (field-independent basis, Debye):
    X=              0.0000    Y=              0.0000    Z=              4.9887  Tot=              4.9887
 Quadrupole moment (field-independent basis, Debye-Ang):
   XX=            -15.3502   YY=            -15.3502   ZZ=            -19.0416
   XY=              0.0000   XZ=              0.0000   YZ=              0.0000

 \\#P ROCCSD(T)=(maxcyc=100, Full)/Gen SCF=(maxcycle=400, symm) Pseudo=
 2333053\CCSD(T)=-124.2586408\RMSD=2.836e-09\PG=C*V [C*(H1Fe1)]\\@
 Normal termination of Gaussian 16 at Mon Feb 12 20:22:35 2018.
