 Gaussian 16, Revision A.03,
 Gaussian 16:  ES64L-G16RevA.03 25-Dec-2016

 ----------------------------------------------------------------------
 #P ROCCSD(T)=(maxcyc=100, Full)/Gen SCF=(maxcycle=400, symm) Pseudo=Re
 ad Integral(NoXCTest) Pop=Regular MaxDisk=500GB Guess=Permute IOp(5/15
 =2)
 ----------------------------------------------------------------------

 ---
 FeH
 ---
 Symbolic Z-matrix:
 Charge =  0 Multiplicity = 4

                         Standard orientation:
 ---------------------------------------------------------------------
 Center     Atomic      Atomic             Coordinates (Angstroms)
 Number     Number       Type             X           Y           Z
 ---------------------------------------------------------------------
      1         26           0        0.000000    0.000000    0.066667
      2          1           0        0.000000    0.000000   -1.733333
 ---------------------------------------------------------------------

 SCF Done:  E(ROHF) =  -123.504046488     A.U. after   29 cycles
 E2 =    -0.7981429798D+00 EUMP2 =    -0.12430218946790D+03
 CCSD(T)
 CCSD(T)= -0.12430554005D+03

 Unable to determine electronic state:  an orbital has unidentified symmetry.
 Alpha  occ. eigenvalues --   -4.36933  -2.79300  -2.79025  -2.79025  -0.48855
 Alpha  occ. eigenvalues --   -0.48855  -0.48578  -0.43598  -0.42897  -0.31766
 Alpha virt. eigenvalues --   -0.00889   0.02063   0.02063   0.02727   0.03109
 Alpha virt. eigenvalues --    0.05746   0.06150   0.06161   0.06366   0.06366
 Alpha virt. eigenvalues --    0.07344   0.07344   0.08871   0.12709   0.15911

 Mulliken charges and spin densities:
               1          2
     1  Fe   0.306576   2.996904
     2  H   -0.306576   0.003096
 Sum of Mulliken charges =  -0.00000   3.00000

 Dipole moment (field-independent basis, Debye):
    X=              0.0000    Y=              0.0000    Z=              4.9842  Tot=              4.9842
 Quadrupole moment (field-independent basis, Debye-Ang):
   XX=            -15.3330   YY=            -15.3330   ZZ=            -19.0581
   XY=              0.0000   XZ=              0.0000   YZ=              0.0000

 \\#P ROCCSD(T)=(maxcyc=100, Full)/Gen SCF=(maxcycle=400, symm) Pseudo=
 277305\CCSD(T)=-124.3055401\RMSD=8.515e-09\PG=C*V [C*(H1Fe1)]\\@
 Normal termination of Gaussian 16 at Mon Feb 12 22:42:06 2018.
