 Gaussian 16, Revision A.03,
 Gaussian 16:  ES64L-G16RevA.03 25-Dec-2016

 ----------------------------------------------------------------------
 #P ROCCSD(T)=(maxcyc=150, Window=(7,0), SaveAmplitudes, ReadAmplitudes
 )/Gen 5d 7f SCF=(maxcycles=300) Integral(NoXCTest, DKHSO) MaxDisk=500G
 B Pop=Regular Guess=Read IOp(5/15=2)
 ----------------------------------------------------------------------

 ---
 TiO
 ---
 Symbolic Z-matrix:
 Charge =  0 Multiplicity = 3

                         Standard orientation:
 ---------------------------------------------------------------------
 Center     Atomic      Atomic             Coordinates (Angstroms)
 Number     Number       Type             X           Y           Z
 ---------------------------------------------------------------------
      1         22           0        0.000000    0.000000    0.426667
      2          8           0        0.000000    0.000000   -1.173333
 ---------------------------------------------------------------------

 SCF Done:  E(ROHF) =  -927.711646817     A.U. after    3 cycles
 E2 =    -0.7201548601D+00 EUMP2 =    -0.92843180167753D+03
 CCSD(T)
 CCSD(T)= -0.92845780769D+03

 Unable to determine electronic state:  an orbital has unidentified symmetry.
 Alpha  occ. eigenvalues -- -184.44833 -21.71683 -20.50796 -17.88302 -17.88302
 Alpha  occ. eigenvalues --  -17.88189  -2.98524  -1.89422  -1.89422  -1.88863
 Alpha  occ. eigenvalues --   -1.15261  -0.46750  -0.45109  -0.45109  -0.44973
 Alpha  occ. eigenvalues --   -0.26318
 Alpha virt. eigenvalues --    0.00390   0.00390   0.01604   0.02556   0.04130
 Alpha virt. eigenvalues --    0.04130   0.04824   0.04953   0.05182   0.05871
 Alpha virt. eigenvalues --    0.05871   0.06838   0.10839   0.11217   0.13850

 Mulliken charges and spin densities:
               1          2
     1  Ti   0.914916   2.000276
     2  O   -0.914916  -0.000276
 Sum of Mulliken charges =  -0.00000   2.00000

 Dipole moment (field-independent basis, Debye):
    X=              0.0000    Y=              0.0000    Z=              4.1608  Tot=              4.1608
 Quadrupole moment (field-independent basis, Debye-Ang):
   XX=            -21.9226   YY=            -21.9226   ZZ=            -29.5606
   XY=              0.0000   XZ=              0.0000   YZ=              0.0000

 1\1\GINC-C477-064\SP\ROCCSD(T)-RW\Gen\O1Ti1(3)\AANNABE\14-Mar-2018\0\\
 #P ROCCSD(T)=(maxcyc=150, Window=(7,0), SaveAmplitudes, ReadAmplitudes
 )/Gen 5d 7f SCF=(maxcycles=300) Integral(NoXCTest, DKHSO) MaxDisk=500G
 B Pop=Regular Guess=Read IOp(5/15=2)\\TiO\\0,3\Ti,0,0.,0.,0.\O,0,0.,0.
 ,1.6\\Version=ES64L-G16RevA.03\HF=-927.7116468\MP2=-928.4318017\MP3=-9
 28.3900374\PUHF=-927.7116468\PMP2-0=-928.4318017\MP4SDQ=-928.4418386\C
 CSD=-928.415113\CCSD(T)=-928.4578077\RMSD=4.171e-10\PG=C*V [C*(O1Ti1)]
 \\@

 Normal termination of Gaussian 16 at Wed Mar 14 14:14:02 2018.
