 Gaussian 16, Revision A.03,
 Gaussian 16:  ES64L-G16RevA.03 25-Dec-2016

 ----------------------------------------------------------------------
 #P ROCCSD(T)=(maxcyc=150, Full, SaveAmplitudes, ReadAmplitudes)/Gen 5d
  7f SCF=(maxcycles=300) Integral(NoXCTest) MaxDisk=500GB Pop=Regular P
 seudo=Read Guess=Read
 ----------------------------------------------------------------------

 ---
 MnO
 ---
 Symbolic Z-matrix:
 Charge =  0 Multiplicity = 6

                         Standard orientation:
 ---------------------------------------------------------------------
 Center     Atomic      Atomic             Coordinates (Angstroms)
 Number     Number       Type             X           Y           Z
 ---------------------------------------------------------------------
      1         25           0        0.000000    0.000000    0.412121
      2          8           0        0.000000    0.000000   -1.287879
 ---------------------------------------------------------------------

 SCF Done:  E(ROHF) =  -119.168728783     A.U. after   22 cycles
 E2 =    -0.9341254579D+00 EUMP2 =    -0.12010285424079D+03
 CCSD(T)
 CCSD(T)= -0.12013143569D+03

 The electronic state is 6-SG.
 Alpha  occ. eigenvalues --   -4.15142  -2.79942  -2.79942  -2.79316  -1.12001
 Alpha  occ. eigenvalues --   -0.64414  -0.64414  -0.63647  -0.63647  -0.59546
 Alpha  occ. eigenvalues --   -0.33888  -0.33875  -0.33875
 Alpha virt. eigenvalues --   -0.04621   0.01335   0.01335   0.01593   0.03379
 Alpha virt. eigenvalues --    0.05760   0.05760   0.05863   0.05863   0.06360
 Alpha virt. eigenvalues --    0.07068   0.07068   0.11364   0.12675   0.17843

 Mulliken charges and spin densities:
               1          2
     1  Mn   1.166902   4.903335
     2  O   -1.166902   0.096665
 Sum of Mulliken charges =  -0.00000   5.00000

 Dipole moment (field-independent basis, Debye):
    X=              0.0000    Y=              0.0000    Z=              9.1146  Tot=              9.1146
 Quadrupole moment (field-independent basis, Debye-Ang):
   XX=            -18.8596   YY=            -18.8596   ZZ=            -23.8110
   XY=              0.0000   XZ=              0.0000   YZ=              0.0000

 \\#P ROCCSD(T)=(maxcyc=150, Full, SaveAmplitudes, ReadAmplitudes)/Gen
 9.1687288\PMP2-0=-120.1028542\CCSD=-120.0881807\CCSD(T)=-120.1314357\R
 Normal termination of Gaussian 16 at Sat Mar 10 09:27:18 2018.
