 Gaussian 16, Revision A.03,
 Gaussian 16:  ES64L-G16RevA.03 25-Dec-2016

 ----------------------------------------------------------------------
 #P ROCCSD(T)=(maxcyc=150, Full, SaveAmplitudes, ReadAmplitudes)/Gen 5d
  7f SCF=(maxcycles=300) Integral(NoXCTest) MaxDisk=500GB Pop=Regular P
 seudo=Read Guess=Read IOp(5/15=2)
 ----------------------------------------------------------------------

 ---
 TiO
 ---
 Symbolic Z-matrix:
 Charge =  0 Multiplicity = 3

                         Standard orientation:
 ---------------------------------------------------------------------
 Center     Atomic      Atomic             Coordinates (Angstroms)
 Number     Number       Type             X           Y           Z
 ---------------------------------------------------------------------
      1         22           0        0.000000    0.000000    0.426667
      2          8           0        0.000000    0.000000   -1.173333
 ---------------------------------------------------------------------

 SCF Done:  E(ROHF) =  -73.5505444016     A.U. after   22 cycles
 E2 =    -0.7501131724D+00 EUMP2 =    -0.74300657573991D+02
 CCSD(T)
 CCSD(T)= -0.74329557185D+02

 Unable to determine electronic state:  an orbital has unidentified symmetry.
 Alpha  occ. eigenvalues --   -3.03869  -1.90486  -1.90486  -1.89393  -1.15494
 Alpha  occ. eigenvalues --   -0.46655  -0.45615  -0.45000  -0.45000  -0.26426
 Alpha virt. eigenvalues --    0.00409   0.00409   0.01562   0.02573   0.04138
 Alpha virt. eigenvalues --    0.04138   0.04817   0.04961   0.05185   0.05873
 Alpha virt. eigenvalues --    0.05873   0.06803   0.10852   0.11183   0.13834

 Mulliken charges and spin densities:
               1          2
     1  Ti   0.901498   1.998305
     2  O   -0.901498   0.001695
 Sum of Mulliken charges =  -0.00000   2.00000

 Dipole moment (field-independent basis, Debye):
    X=              0.0000    Y=              0.0000    Z=              4.2323  Tot=              4.2323
 Quadrupole moment (field-independent basis, Debye-Ang):
   XX=            -21.4037   YY=            -21.4037   ZZ=            -28.8510
   XY=              0.0000   XZ=              0.0000   YZ=              0.0000

 \\#P ROCCSD(T)=(maxcyc=150, Full, SaveAmplitudes, ReadAmplitudes)/Gen
 .2845245\CCSD(T)=-74.3295572\RMSD=2.299e-09\PG=C*V [C*(O1Ti1)]\\@
 Normal termination of Gaussian 16 at Mon Mar 12 14:23:34 2018.
