 Gaussian 16, Revision A.03,
 Gaussian 16:  ES64L-G16RevA.03 25-Dec-2016

 ----------------------------------------------------------------------
 #P ROCCSD(T)=(MaxCyc=150, FrzINGC)/Gen SCF=(maxcycle=400, vshift=200)
 Integral(DKHSO, NoXCTest) Pop=Regular MaxDisk=500GB Guess=Read IOp(5/1
 5=2)
 ----------------------------------------------------------------------

 ---
 ZnH
 ---
 Symbolic Z-matrix:
 Charge =  0 Multiplicity = 2

                         Standard orientation:
 ---------------------------------------------------------------------
 Center     Atomic      Atomic             Coordinates (Angstroms)
 Number     Number       Type             X           Y           Z
 ---------------------------------------------------------------------
      1         30           0        0.000000    0.000000    0.054839
      2          1           0        0.000000    0.000000   -1.645161
 ---------------------------------------------------------------------

 SCF Done:  E(ROHF) =  -1794.80112728     A.U. after   16 cycles
 E2 =    -0.1034395191D+01 EUMP2 =    -0.17958355224677D+04
 CCSD(T)
 CCSD(T)= -0.17957717319D+04

 The electronic state is 2-SG.
 Alpha  occ. eigenvalues -- -357.59670 -45.36317 -39.16632 -39.16632 -39.16517
 Alpha  occ. eigenvalues --   -5.83332  -3.91279  -3.91279  -3.91106  -0.80096
 Alpha  occ. eigenvalues --   -0.80096  -0.79839  -0.79595  -0.79595  -0.44679
 Alpha  occ. eigenvalues --   -0.28118
 Alpha virt. eigenvalues --    0.02023   0.02023   0.02951   0.03850   0.07591
 Alpha virt. eigenvalues --    0.07591   0.08790   0.15883   0.17638   0.23954
 Alpha virt. eigenvalues --    0.23954   0.24881   0.24881   0.25233   0.29492

 Mulliken charges and spin densities:
               1          2
     1  Zn   0.346389   0.917487
     2  H   -0.346389   0.082513
 Sum of Mulliken charges =  -0.00000   1.00000

 Dipole moment (field-independent basis, Debye):
    X=              0.0000    Y=              0.0000    Z=              1.0910  Tot=              1.0910
 Quadrupole moment (field-independent basis, Debye-Ang):
   XX=            -14.8980   YY=            -14.8980   ZZ=            -21.7248
   XY=              0.0000   XZ=              0.0000   YZ=              0.0000

 \#P ROCCSD(T)=(MaxCyc=150, FrzINGC)/Gen SCF=(maxcycle=400, vshift=200)
 775\CCSD(T)=-1795.7717319\RMSD=8.326e-09\PG=C*V [C*(H1Zn1)]\\@
 Normal termination of Gaussian 16 at Sat Apr 21 10:47:49 2018.
