 Gaussian 16, Revision A.03,
 Gaussian 16:  ES64L-G16RevA.03 25-Dec-2016

 ----------------------------------------------------------------------
 #P ROCCSD(T)=(MaxCyc=150, FrzINGC)/Gen SCF=(maxcycle=400, vshift=200)
 Integral(DKHSO, NoXCTest) Pop=Regular MaxDisk=500GB Guess=Read IOp(5/1
 5=2)
 ----------------------------------------------------------------------

 ---
 ZnH
 ---
 Symbolic Z-matrix:
 Charge =  0 Multiplicity = 2

                         Standard orientation:
 ---------------------------------------------------------------------
 Center     Atomic      Atomic             Coordinates (Angstroms)
 Number     Number       Type             X           Y           Z
 ---------------------------------------------------------------------
      1         30           0        0.000000    0.000000    0.054839
      2          1           0        0.000000    0.000000   -1.645161
 ---------------------------------------------------------------------

 SCF Done:  E(ROHF) =  -1794.80368441     A.U. after   21 cycles
 E2 =    -0.1113665619D+01 EUMP2 =    -0.17959173500258D+04
 CCSD(T)
 CCSD(T)= -0.17958509628D+04

 The electronic state is 2-SG.
 Alpha  occ. eigenvalues -- -357.59682 -45.36296 -39.16607 -39.16607 -39.16493
 Alpha  occ. eigenvalues --   -5.83319  -3.91263  -3.91263  -3.91096  -0.80093
 Alpha  occ. eigenvalues --   -0.80093  -0.79840  -0.79596  -0.79596  -0.44677
 Alpha  occ. eigenvalues --   -0.28122
 Alpha virt. eigenvalues --    0.01845   0.01845   0.02375   0.03231   0.06221
 Alpha virt. eigenvalues --    0.06221   0.06776   0.12065   0.13150   0.15350
 Alpha virt. eigenvalues --    0.15350   0.15383   0.15383   0.18013   0.20992

 Mulliken charges and spin densities:
               1          2
     1  Zn   0.279159   0.910208
     2  H   -0.279159   0.089792
 Sum of Mulliken charges =  -0.00000   1.00000

 Dipole moment (field-independent basis, Debye):
    X=              0.0000    Y=              0.0000    Z=              1.0943  Tot=              1.0943
 Quadrupole moment (field-independent basis, Debye-Ang):
   XX=            -14.8948   YY=            -14.8948   ZZ=            -21.7205
   XY=             -0.0000   XZ=              0.0000   YZ=             -0.0000

 \#P ROCCSD(T)=(MaxCyc=150, FrzINGC)/Gen SCF=(maxcycle=400, vshift=200)
 CCSD(T)=-1795.8509628\RMSD=2.838e-09\PG=C*V [C*(H1Zn1)]\\@
 Normal termination of Gaussian 16 at Sun Apr 29 16:03:28 2018.
