 Gaussian 16, Revision A.03,
 Gaussian 16:  ES64L-G16RevA.03 25-Dec-2016

 ----------------------------------------------------------------------
 #P ROCCSD(T)=(maxcyc=150, Full)/Gen 5d 7f SCF=(maxcycles=300, NoVarAcc
 , VShift=300) MaxDisk=100GB Pop=Regular Pseudo=Read Guess=Read IOp(5/1
 5=2)
 ----------------------------------------------------------------------

 --
 Cr
 --
 Symbolic Z-matrix:
 Charge =  0 Multiplicity = 7

                         Standard orientation:
 ---------------------------------------------------------------------
 Center     Atomic      Atomic             Coordinates (Angstroms)
 Number     Number       Type             X           Y           Z
 ---------------------------------------------------------------------
      1         24           0        0.000000    0.000000    0.000000
 ---------------------------------------------------------------------

 SCF Done:  E(ROHF) =  -85.7719105438     A.U. after   39 cycles
 E2 =    -0.5635757110D+00 EUMP2 =    -0.86335486254825D+02
 CCSD(T)
 CCSD(T)= -0.86344183411D+02

 The electronic state is 7-A1G.
 Alpha  occ. eigenvalues --   -3.57867  -2.29109  -2.29109  -2.29109  -0.36872
 Alpha  occ. eigenvalues --   -0.36872  -0.36872  -0.36872  -0.36872  -0.22721
 Alpha virt. eigenvalues --    0.01699   0.01699   0.01699   0.02257   0.05111
 Alpha virt. eigenvalues --    0.05111   0.05111   0.05111   0.05111   0.05734
 Alpha virt. eigenvalues --    0.05734   0.05734   0.11270   0.16254   0.16254

 Mulliken charges and spin densities:
               1          2
     1  Cr  -0.000000   6.000000
 Sum of Mulliken charges =  -0.00000   6.00000

 Dipole moment (field-independent basis, Debye):
    X=              0.0000    Y=              0.0000    Z=              0.0000  Tot=              0.0000
 Quadrupole moment (field-independent basis, Debye-Ang):
   XX=            -16.4588   YY=            -16.4588   ZZ=            -16.4588
   XY=              0.0000   XZ=             -0.0000   YZ=             -0.0000

 1\1\GINC-C455-044\SP\ROCCSD(T)-Full\Gen\Cr1(7)\AANNABE\05-Apr-2018\0\\
 #P ROCCSD(T)=(maxcyc=150, Full)/Gen 5d 7f SCF=(maxcycles=300, NoVarAcc
 , VShift=300) MaxDisk=100GB Pop=Regular Pseudo=Read Guess=Read IOp(5/1
 5=2)\\Cr\\0,7\Cr,0,0.,0.,0.\\Version=ES64L-G16RevA.03\State=7-A1G\HF=-
 85.7719105\MP2=-86.3354863\MP3=-86.3246512\PUHF=-85.7719105\PMP2-0=-86
 .3354863\MP4SDQ=-86.3276045\CCSD=-86.3266723\CCSD(T)=-86.3441834\RMSD=
 3.902e-09\PG=OH [O(Cr1)]\\@

 Normal termination of Gaussian 16 at Thu Apr  5 22:05:35 2018.
