 Gaussian 16, Revision A.03,
 Gaussian 16:  ES64L-G16RevA.03 25-Dec-2016

 ----------------------------------------------------------------------
 #P ROCCSD(T)=(maxcyc=150, Full, SaveAmplitudes, ReadAmplitudes)/Gen 5d
  7f SCF=(maxcycles=300) Integral(NoXCTest) MaxDisk=500GB Pop=Regular P
 seudo=Read Guess=Read IOp(5/15=2)
 ----------------------------------------------------------------------

 ---
 ScO
 ---
 Symbolic Z-matrix:
 Charge =  0 Multiplicity = 2

                         Standard orientation:
 ---------------------------------------------------------------------
 Center     Atomic      Atomic             Coordinates (Angstroms)
 Number     Number       Type             X           Y           Z
 ---------------------------------------------------------------------
      1         21           0        0.000000    0.000000    0.331034
      2          8           0        0.000000    0.000000   -0.868966
 ---------------------------------------------------------------------

 SCF Done:  E(ROHF) =  -61.7514893108     A.U. after   18 cycles
 E2 =    -0.6516296898D+00 EUMP2 =    -0.62403119000613D+02
 CCSD(T)
 CCSD(T)= -0.62433872678D+02

 The electronic state is 2-SG.
 Alpha  occ. eigenvalues --   -2.64471  -1.82399  -1.52196  -1.52196  -1.04472
 Alpha  occ. eigenvalues --   -0.63588  -0.63588  -0.47597  -0.18004
 Alpha virt. eigenvalues --    0.01050   0.01050   0.01801   0.02751   0.03773
 Alpha virt. eigenvalues --    0.03773   0.03805   0.03805   0.03866   0.04927
 Alpha virt. eigenvalues --    0.04927   0.07225   0.11150   0.11150   0.11161

 Mulliken charges and spin densities:
               1          2
     1  Sc   1.061699   1.030938
     2  O   -1.061699  -0.030938
 Sum of Mulliken charges =  -0.00000   1.00000

 Dipole moment (field-independent basis, Debye):
    X=              0.0000    Y=              0.0000    Z=             -1.1297  Tot=              1.1297
 Quadrupole moment (field-independent basis, Debye-Ang):
   XX=            -23.3768   YY=            -23.3768   ZZ=            -28.7959
   XY=              0.0000   XZ=              0.0000   YZ=              0.0000

 \\#P ROCCSD(T)=(maxcyc=150, Full, SaveAmplitudes, ReadAmplitudes)/Gen
 \CCSD=-62.4066746\CCSD(T)=-62.4338727\RMSD=3.420e-09\PG=C*V [C*(O1Sc1)
 Normal termination of Gaussian 16 at Tue Feb 27 13:05:31 2018.
