 Gaussian 16, Revision A.03,
 Gaussian 16:  ES64L-G16RevA.03 25-Dec-2016

 ----------------------------------------------------------------------
 #P ROCCSD(T)=(maxcyc=100, Full)/Gen SCF=(maxcycle=400, symm) Pseudo=Re
 ad Integral(NoXCTest) Pop=Regular MaxDisk=500GB Guess=Permute IOp(5/15
 =2)
 ----------------------------------------------------------------------

 ---
 FeH
 ---
 Symbolic Z-matrix:
 Charge =  0 Multiplicity = 4

                         Standard orientation:
 ---------------------------------------------------------------------
 Center     Atomic      Atomic             Coordinates (Angstroms)
 Number     Number       Type             X           Y           Z
 ---------------------------------------------------------------------
      1         26           0        0.000000    0.000000    0.070370
      2          1           0        0.000000    0.000000   -1.829630
 ---------------------------------------------------------------------

 SCF Done:  E(ROHF) =  -123.577054475     A.U. after   26 cycles
 E2 =    -0.7506335596D+00 EUMP2 =    -0.12432768803473D+03
 CCSD(T)
 CCSD(T)= -0.12433542060D+03

 Unable to determine electronic state:  an orbital has unidentified symmetry.
 Alpha  occ. eigenvalues --   -4.27896  -2.75966  -2.75785  -2.75785  -0.48861
 Alpha  occ. eigenvalues --   -0.48861  -0.48737  -0.43749  -0.42670  -0.31462
 Alpha virt. eigenvalues --   -0.01055   0.02334   0.02334   0.03443   0.03705
 Alpha virt. eigenvalues --    0.08382   0.08382   0.09404   0.10039   0.10080
 Alpha virt. eigenvalues --    0.10363   0.10363   0.11150   0.16860   0.22249

 Mulliken charges and spin densities:
               1          2
     1  Fe   0.426211   2.999234
     2  H   -0.426211   0.000766
 Sum of Mulliken charges =   0.00000   3.00000

 Dipole moment (field-independent basis, Debye):
    X=              0.0000    Y=              0.0000    Z=              5.2481  Tot=              5.2481
 Quadrupole moment (field-independent basis, Debye-Ang):
   XX=            -15.1817   YY=            -15.1817   ZZ=            -19.8224
   XY=              0.0000   XZ=              0.0000   YZ=              0.0000

 \\#P ROCCSD(T)=(maxcyc=100, Full)/Gen SCF=(maxcycle=400, symm) Pseudo=
 09543\CCSD(T)=-124.3354206\RMSD=3.359e-09\PG=C*V [C*(H1Fe1)]\\@
 Normal termination of Gaussian 16 at Mon Feb 12 21:40:35 2018.
