 Gaussian 16, Revision A.03,
 Gaussian 16:  ES64L-G16RevA.03 25-Dec-2016

 ----------------------------------------------------------------------
 #P ROCCSD(T)=(maxcyc=100, Full)/Gen SCF=(maxcycle=400, symm) Pseudo=Re
 ad Integral(NoXCTest) Pop=Regular MaxDisk=500GB Guess=Permute IOp(5/15
 =2)
 ----------------------------------------------------------------------

 ---
 FeH
 ---
 Symbolic Z-matrix:
 Charge =  0 Multiplicity = 4

                         Standard orientation:
 ---------------------------------------------------------------------
 Center     Atomic      Atomic             Coordinates (Angstroms)
 Number     Number       Type             X           Y           Z
 ---------------------------------------------------------------------
      1         26           0        0.000000    0.000000    0.070370
      2          1           0        0.000000    0.000000   -1.829630
 ---------------------------------------------------------------------

 SCF Done:  E(ROHF) =  -123.578192274     A.U. after   35 cycles
 E2 =    -0.7863216128D+00 EUMP2 =    -0.12436451388657D+03
 CCSD(T)
 CCSD(T)= -0.12437032167D+03

 Unable to determine electronic state:  an orbital has unidentified symmetry.
 Alpha  occ. eigenvalues --   -4.27899  -2.75961  -2.75781  -2.75781  -0.48865
 Alpha  occ. eigenvalues --   -0.48865  -0.48742  -0.43755  -0.42678  -0.31465
 Alpha virt. eigenvalues --   -0.01063   0.02092   0.02092   0.03159   0.03428
 Alpha virt. eigenvalues --    0.06205   0.06677   0.06691   0.06875   0.06875
 Alpha virt. eigenvalues --    0.07689   0.07689   0.10307   0.15311   0.17572

 Mulliken charges and spin densities:
               1          2
     1  Fe   0.360250   2.998628
     2  H   -0.360250   0.001372
 Sum of Mulliken charges =  -0.00000   3.00000

 Dipole moment (field-independent basis, Debye):
    X=              0.0000    Y=              0.0000    Z=              5.2434  Tot=              5.2434
 Quadrupole moment (field-independent basis, Debye-Ang):
   XX=            -15.1690   YY=            -15.1690   ZZ=            -19.8350
   XY=              0.0000   XZ=              0.0000   YZ=              0.0000

 \\#P ROCCSD(T)=(maxcyc=100, Full)/Gen SCF=(maxcycle=400, symm) Pseudo=
 434391\CCSD(T)=-124.3703217\RMSD=9.197e-09\PG=C*V [C*(H1Fe1)]\\@
 Normal termination of Gaussian 16 at Mon Feb 12 22:19:33 2018.
