 Gaussian 16, Revision A.03,
 Gaussian 16:  ES64L-G16RevA.03 25-Dec-2016

 ----------------------------------------------------------------------
 #P ROCCSD(T)=(maxcyc=100, Full)/Gen SCF=(maxcycle=400, symm) Pseudo=Re
 ad Integral(NoXCTest) Pop=Regular MaxDisk=500GB Guess=Permute IOp(5/15
 =2)
 ----------------------------------------------------------------------

 ---
 FeH
 ---
 Symbolic Z-matrix:
 Charge =  0 Multiplicity = 4

                         Standard orientation:
 ---------------------------------------------------------------------
 Center     Atomic      Atomic             Coordinates (Angstroms)
 Number     Number       Type             X           Y           Z
 ---------------------------------------------------------------------
      1         26           0        0.000000    0.000000    0.070370
      2          1           0        0.000000    0.000000   -1.829630
 ---------------------------------------------------------------------

 SCF Done:  E(ROHF) =  -123.578381432     A.U. after   27 cycles
 E2 =    -0.8005321872D+00 EUMP2 =    -0.12437891361922D+03
 CCSD(T)
 CCSD(T)= -0.12438272469D+03

 Unable to determine electronic state:  an orbital has unidentified symmetry.
 Alpha  occ. eigenvalues --   -4.27898  -2.75958  -2.75778  -2.75778  -0.48863
 Alpha  occ. eigenvalues --   -0.48863  -0.48740  -0.43758  -0.42683  -0.31465
 Alpha virt. eigenvalues --   -0.01078   0.02026   0.02026   0.02746   0.03017
 Alpha virt. eigenvalues --    0.05737   0.06119   0.06130   0.06372   0.06372
 Alpha virt. eigenvalues --    0.07320   0.07320   0.08971   0.12520   0.15518

 Mulliken charges and spin densities:
               1          2
     1  Fe   0.321233   2.997662
     2  H   -0.321233   0.002338
 Sum of Mulliken charges =  -0.00000   3.00000

 Dipole moment (field-independent basis, Debye):
    X=              0.0000    Y=              0.0000    Z=              5.2432  Tot=              5.2432
 Quadrupole moment (field-independent basis, Debye-Ang):
   XX=            -15.1668   YY=            -15.1668   ZZ=            -19.8383
   XY=              0.0000   XZ=              0.0000   YZ=              0.0000

 \\#P ROCCSD(T)=(maxcyc=100, Full)/Gen SCF=(maxcycle=400, symm) Pseudo=
 9887\CCSD(T)=-124.3827247\RMSD=2.836e-09\PG=C*V [C*(H1Fe1)]\\@
 Normal termination of Gaussian 16 at Tue Feb 13 00:00:15 2018.
