 Gaussian 16, Revision A.03,
 Gaussian 16:  ES64L-G16RevA.03 25-Dec-2016

 ----------------------------------------------------------------------
 #P ROCCSD(T)=(maxcyc=150, Full)/Gen 5d 7f SCF=(maxcycles=300) Integral
 (NoXCTest) MaxDisk=500GB Pop=Regular Pseudo=Read Guess=Read
 ----------------------------------------------------------------------

 ---
 MnH
 ---
 Symbolic Z-matrix:
 Charge =  0 Multiplicity = 7

                         Standard orientation:
 ---------------------------------------------------------------------
 Center     Atomic      Atomic             Coordinates (Angstroms)
 Number     Number       Type             X           Y           Z
 ---------------------------------------------------------------------
      1         25           0        0.000000    0.000000    0.069231
      2          1           0        0.000000    0.000000   -1.730769
 ---------------------------------------------------------------------

 SCF Done:  E(ROHF) =  -104.062277799     A.U. after   18 cycles
 E2 =    -0.5939004051D+00 EUMP2 =    -0.10465617820451D+03
 CCSD(T)
 CCSD(T)= -0.10467847249D+03

 The electronic state is 7-SG.
 Alpha  occ. eigenvalues --   -4.16711  -2.81440  -2.81440  -2.81188  -0.64870
 Alpha  occ. eigenvalues --   -0.64870  -0.64380  -0.64155  -0.64155  -0.40163
 Alpha  occ. eigenvalues --   -0.26490
 Alpha virt. eigenvalues --    0.01113   0.01113   0.02171   0.02898   0.04980
 Alpha virt. eigenvalues --    0.04980   0.05631   0.05791   0.05791   0.06197
 Alpha virt. eigenvalues --    0.06197   0.09249   0.13005   0.13970   0.18051

 Mulliken charges and spin densities:
               1          2
     1  Mn   0.367650   5.952946
     2  H   -0.367650   0.047054
 Sum of Mulliken charges =  -0.00000   6.00000

 Dipole moment (field-independent basis, Debye):
    X=              0.0000    Y=              0.0000    Z=              1.6552  Tot=              1.6552
 Quadrupole moment (field-independent basis, Debye-Ang):
   XX=            -16.2574   YY=            -16.2574   ZZ=            -26.8359
   XY=              0.0000   XZ=              0.0000   YZ=              0.0000

 \\#P ROCCSD(T)=(maxcyc=150, Full)/Gen 5d 7f SCF=(maxcycles=300) Integr
 0=-104.6561782\MP4SDQ=-104.6612554\CCSD=-104.6622646\CCSD(T)=-104.6784
 Normal termination of Gaussian 16 at Tue Feb 13 09:40:42 2018.
