 Gaussian 16, Revision A.03,
 Gaussian 16:  ES64L-G16RevA.03 25-Dec-2016

 ----------------------------------------------------------------------
 #P ROCCSD(T)=(maxcyc=150, Full, SaveAmplitudes, ReadAmplitudes)/Gen 5d
  7f SCF=(maxcycles=300) Integral(NoXCTest) MaxDisk=500GB Pop=Regular P
 seudo=Read Guess=Read IOp(5/15=2)
 ----------------------------------------------------------------------

 ---
 TiO
 ---
 Symbolic Z-matrix:
 Charge =  0 Multiplicity = 3

                         Standard orientation:
 ---------------------------------------------------------------------
 Center     Atomic      Atomic             Coordinates (Angstroms)
 Number     Number       Type             X           Y           Z
 ---------------------------------------------------------------------
      1         22           0        0.000000    0.000000    0.453333
      2          8           0        0.000000    0.000000   -1.246667
 ---------------------------------------------------------------------

 SCF Done:  E(ROHF) =  -73.4069026912     A.U. after   21 cycles
 E2 =    -0.7460431934D+00 EUMP2 =    -0.74152945884655D+02
 CCSD(T)
 CCSD(T)= -0.74185567615D+02

 Unable to determine electronic state:  an orbital has unidentified symmetry.
 Alpha  occ. eigenvalues --   -3.04238  -1.93653  -1.93653  -1.90664  -1.15515
 Alpha  occ. eigenvalues --   -0.48307  -0.45088  -0.42109  -0.42109  -0.27541
 Alpha virt. eigenvalues --   -0.00027  -0.00027   0.01240   0.02438   0.03843
 Alpha virt. eigenvalues --    0.03843   0.04510   0.04835   0.05129   0.05894
 Alpha virt. eigenvalues --    0.05894   0.06367   0.09584   0.11034   0.13036

 Mulliken charges and spin densities:
               1          2
     1  Ti   0.924694   1.992116
     2  O   -0.924694   0.007884
 Sum of Mulliken charges =  -0.00000   2.00000

 Dipole moment (field-independent basis, Debye):
    X=              0.0000    Y=              0.0000    Z=              5.1260  Tot=              5.1260
 Quadrupole moment (field-independent basis, Debye-Ang):
   XX=            -21.5237   YY=            -21.5237   ZZ=            -29.7594
   XY=              0.0000   XZ=              0.0000   YZ=              0.0000

 \\#P ROCCSD(T)=(maxcyc=150, Full, SaveAmplitudes, ReadAmplitudes)/Gen
 .1373876\CCSD(T)=-74.1855676\RMSD=9.619e-09\PG=C*V [C*(O1Ti1)]\\@
 Normal termination of Gaussian 16 at Sat Mar 10 02:28:03 2018.
