 Gaussian 16, Revision A.03,
 Gaussian 16:  ES64L-G16RevA.03 25-Dec-2016

 ----------------------------------------------------------------------
 #P ROCCSD(T)=(maxcyc=150, Window=(6,0), SaveAmplitudes, ReadAmplitudes
 )/Gen 5d 7f SCF=(maxcycles=300) Integral(NoXCTest, DKHSO) MaxDisk=500G
 B Pop=Regular Guess=Read IOp(5/15=2)
 ----------------------------------------------------------------------

 ---
 CrH
 ---
 Symbolic Z-matrix:
 Charge =  0 Multiplicity = 6

                         Standard orientation:
 ---------------------------------------------------------------------
 Center     Atomic      Atomic             Coordinates (Angstroms)
 Number     Number       Type             X           Y           Z
 ---------------------------------------------------------------------
      1         24           0        0.000000    0.000000    0.076000
      2          1           0        0.000000    0.000000   -1.824000
 ---------------------------------------------------------------------

 SCF Done:  E(ROHF) =  -1050.19998753     A.U. after   21 cycles
 E2 =    -0.5083716690D+00 EUMP2 =    -0.10507083592038D+04
 CCSD(T)
 CCSD(T)= -0.10507102260D+04

 The electronic state is 6-SG.
 Alpha  occ. eigenvalues -- -222.22596 -26.81912 -22.45312 -22.45312 -22.45305
 Alpha  occ. eigenvalues --   -3.69109  -2.44564  -2.44564  -2.40282  -0.56723
 Alpha  occ. eigenvalues --   -0.56723  -0.53343  -0.53343  -0.38760  -0.26524
 Alpha virt. eigenvalues --    0.01121   0.01121   0.02269   0.02610   0.05341
 Alpha virt. eigenvalues --    0.05341   0.05562   0.07528   0.07528   0.08002
 Alpha virt. eigenvalues --    0.08002   0.09055   0.10451   0.17128   0.20653

 Mulliken charges and spin densities:
               1          2
     1  Cr   0.384722   4.979170
     2  H   -0.384722   0.020830
 Sum of Mulliken charges =   0.00000   5.00000

 Dipole moment (field-independent basis, Debye):
    X=              0.0000    Y=              0.0000    Z=              2.6321  Tot=              2.6321
 Quadrupole moment (field-independent basis, Debye-Ang):
   XX=            -17.4736   YY=            -17.4736   ZZ=            -26.4020
   XY=              0.0000   XZ=              0.0000   YZ=              0.0000

 1\1\GINC-C505-052\SP\ROCCSD(T)-RW\Gen\Cr1H1(6)\AANNABE\26-Feb-2018\0\\
 #P ROCCSD(T)=(maxcyc=150, Window=(6,0), SaveAmplitudes, ReadAmplitudes
 )/Gen 5d 7f SCF=(maxcycles=300) Integral(NoXCTest, DKHSO) MaxDisk=500G
 B Pop=Regular Guess=Read IOp(5/15=2)\\CrH\\0,6\Cr,0,0.,0.,0.\H,0,0.,0.
 ,1.9\\Version=ES64L-G16RevA.03\State=6-SG\HF=-1050.1999875\MP2=-1050.7
 083592\MP3=-1050.7126984\PUHF=-1050.1999875\PMP2-0=-1050.7083592\MP4SD
 Q=-1050.720487\CCSD=-1050.7008924\CCSD(T)=-1050.710226\RMSD=3.588e-09\
 PG=C*V [C*(H1Cr1)]\\@

 Normal termination of Gaussian 16 at Mon Feb 26 04:12:51 2018.
