 Gaussian 16, Revision A.03,
 Gaussian 16:  ES64L-G16RevA.03 25-Dec-2016

 ----------------------------------------------------------------------
 #P ROCCSD(T)=(maxcyc=150, Full, SaveAmplitudes, ReadAmplitudes)/Gen 5d
  7f SCF=(maxcycles=300) Integral(NoXCTest) MaxDisk=500GB Pop=Regular P
 seudo=Read Guess=Read IOp(5/15=2)
 ----------------------------------------------------------------------

 ---
 MnH
 ---
 Symbolic Z-matrix:
 Charge =  0 Multiplicity = 7

                         Standard orientation:
 ---------------------------------------------------------------------
 Center     Atomic      Atomic             Coordinates (Angstroms)
 Number     Number       Type             X           Y           Z
 ---------------------------------------------------------------------
      1         25           0        0.000000    0.000000    0.046154
      2          1           0        0.000000    0.000000   -1.153846
 ---------------------------------------------------------------------

 SCF Done:  E(ROHF) =  -104.134634328     A.U. after   29 cycles
 E2 =    -0.6101594351D+00 EUMP2 =    -0.10474479376271D+03
 CCSD(T)
 CCSD(T)= -0.10476557274D+03

 The electronic state is 7-SG.
 Alpha  occ. eigenvalues --   -4.09284  -2.76086  -2.74992  -2.74992  -0.67831
 Alpha  occ. eigenvalues --   -0.63220  -0.63220  -0.63074  -0.63074  -0.41084
 Alpha  occ. eigenvalues --   -0.23941
 Alpha virt. eigenvalues --    0.01342   0.01342   0.02094   0.03310   0.05778
 Alpha virt. eigenvalues --    0.05778   0.08526   0.08526   0.08669   0.08926
 Alpha virt. eigenvalues --    0.08939   0.08939   0.14153   0.21991   0.22495

 Mulliken charges and spin densities:
               1          2
     1  Mn   0.492153   5.944030
     2  H   -0.492153   0.055970
 Sum of Mulliken charges =  -0.00000   6.00000

 Dipole moment (field-independent basis, Debye):
    X=              0.0000    Y=              0.0000    Z=             -0.3166  Tot=              0.3166
 Quadrupole moment (field-independent basis, Debye-Ang):
   XX=            -15.8268   YY=            -15.8268   ZZ=            -25.1012
   XY=              0.0000   XZ=              0.0000   YZ=              0.0000

 \\#P ROCCSD(T)=(maxcyc=150, Full, SaveAmplitudes, ReadAmplitudes)/Gen
 .7468706\CCSD=-104.7479666\CCSD(T)=-104.7655727\RMSD=4.016e-09\PG=C*V
 Normal termination of Gaussian 16 at Sun Feb 25 22:31:06 2018.
