 Gaussian 16, Revision A.03,
 Gaussian 16:  ES64L-G16RevA.03 25-Dec-2016

 ----------------------------------------------------------------------
 #P ROCCSD(T)=(MaxCyc=150, Full)/Gen SCF=(maxcycle=400) Pseudo=Read Int
 egral(NoXCTest) Pop=Regular MaxDisk=500GB Guess=Read IOp(5/15=2)
 ----------------------------------------------------------------------

 ---
 CuH
 ---
 Symbolic Z-matrix:
 Charge =  0 Multiplicity = 1

                         Standard orientation:
 ---------------------------------------------------------------------
 Center     Atomic      Atomic             Coordinates (Angstroms)
 Number     Number       Type             X           Y           Z
 ---------------------------------------------------------------------
      1         29           0        0.000000    0.000000    0.056667
      2          1           0        0.000000    0.000000   -1.643333
 ---------------------------------------------------------------------

 SCF Done:  E(ROHF) =  -196.529908816     A.U. after    7 cycles
 E2 =    -0.1168842634D+01 EUMP2 =    -0.19769875145040D+03
 CCSD(T)
 CCSD(T)= -0.19761720811D+03

 The electronic state is 1-SG.
 Alpha  occ. eigenvalues --   -5.24459  -3.36333  -3.36252  -3.36252  -0.49817
 Alpha  occ. eigenvalues --   -0.49817  -0.49702  -0.49702  -0.49682  -0.33295
 Alpha virt. eigenvalues --   -0.00322   0.02501   0.02501   0.03111   0.03899
 Alpha virt. eigenvalues --    0.07655   0.08482   0.08482   0.12160   0.12160
 Alpha virt. eigenvalues --    0.12197   0.12349   0.12349   0.14766   0.18435

 Mulliken charges and spin densities:
               1          2
     1  Cu   0.318936   0.000000
     2  H   -0.318936   0.000000
 Sum of Mulliken charges =  -0.00000   0.00000

 Dipole moment (field-independent basis, Debye):
    X=              0.0000    Y=              0.0000    Z=              4.3842  Tot=              4.3842
 Quadrupole moment (field-independent basis, Debye-Ang):
   XX=            -13.6295   YY=            -13.6295   ZZ=            -17.2392
   XY=              0.0000   XZ=              0.0000   YZ=              0.0000

 P ROCCSD(T)=(MaxCyc=150, Full)/Gen SCF=(maxcycle=400) Pseudo=Read Inte
 2-0=-197.6987515\MP4SDQ=-197.6498441\CCSD=-197.5780313\CCSD(T)=-197.61
 Normal termination of Gaussian 16 at Thu Apr  5 02:44:50 2018.
