 Gaussian 16, Revision A.03,
 Gaussian 16:  ES64L-G16RevA.03 25-Dec-2016

 ----------------------------------------------------------------------
 #P ROCCSD(T)=(MaxCyc=150, Full)/Gen SCF=(maxcycle=400) Pseudo=Read Int
 egral(NoXCTest) Pop=Regular MaxDisk=500GB Guess=Read IOp(5/15=2)
 ----------------------------------------------------------------------

 ---
 CuH
 ---
 Symbolic Z-matrix:
 Charge =  0 Multiplicity = 1

                         Standard orientation:
 ---------------------------------------------------------------------
 Center     Atomic      Atomic             Coordinates (Angstroms)
 Number     Number       Type             X           Y           Z
 ---------------------------------------------------------------------
      1         29           0        0.000000    0.000000    0.056667
      2          1           0        0.000000    0.000000   -1.643333
 ---------------------------------------------------------------------

 SCF Done:  E(ROHF) =  -196.527334696     A.U. after   11 cycles
 E2 =    -0.1091910000D+01 EUMP2 =    -0.19761924469632D+03
 CCSD(T)
 CCSD(T)= -0.19754138075D+03

 The electronic state is 1-SG.
 Alpha  occ. eigenvalues --   -5.24467  -3.36351  -3.36265  -3.36265  -0.49808
 Alpha  occ. eigenvalues --   -0.49808  -0.49694  -0.49694  -0.49680  -0.33289
 Alpha virt. eigenvalues --   -0.00266   0.02876   0.02876   0.03751   0.04936
 Alpha virt. eigenvalues --    0.10006   0.10208   0.10208   0.17094   0.19731
 Alpha virt. eigenvalues --    0.19731   0.20131   0.20131   0.20492   0.25923

 Mulliken charges and spin densities:
               1          2
     1  Cu   0.387641   0.000000
     2  H   -0.387641   0.000000
 Sum of Mulliken charges =   0.00000   0.00000

 Dipole moment (field-independent basis, Debye):
    X=              0.0000    Y=              0.0000    Z=              4.3952  Tot=              4.3952
 Quadrupole moment (field-independent basis, Debye-Ang):
   XX=            -13.6414   YY=            -13.6414   ZZ=            -17.2184
   XY=              0.0000   XZ=              0.0000   YZ=              0.0000

 P ROCCSD(T)=(MaxCyc=150, Full)/Gen SCF=(maxcycle=400) Pseudo=Read Inte
 2-0=-197.6192447\MP4SDQ=-197.5780671\CCSD=-197.5050326\CCSD(T)=-197.54
 Normal termination of Gaussian 16 at Wed Apr  4 23:00:40 2018.
