 Gaussian 16, Revision A.03,
 Gaussian 16:  ES64L-G16RevA.03 25-Dec-2016

 ----------------------------------------------------------------------
 #P ROCCSD(T)=(MaxCyc=150, Full)/Gen SCF=(maxcycle=400) Pseudo=Read Int
 egral(NoXCTest) Pop=Regular MaxDisk=500GB Guess=Read IOp(5/15=2)
 ----------------------------------------------------------------------

 ---
 CuH
 ---
 Symbolic Z-matrix:
 Charge =  0 Multiplicity = 1

                         Standard orientation:
 ---------------------------------------------------------------------
 Center     Atomic      Atomic             Coordinates (Angstroms)
 Number     Number       Type             X           Y           Z
 ---------------------------------------------------------------------
      1         29           0        0.000000    0.000000    0.056667
      2          1           0        0.000000    0.000000   -1.643333
 ---------------------------------------------------------------------

 SCF Done:  E(ROHF) =  -196.530070790     A.U. after   10 cycles
 E2 =    -0.1143887217D+01 EUMP2 =    -0.19767395800640D+03
 CCSD(T)
 CCSD(T)= -0.19759463490D+03

 The electronic state is 1-SG.
 Alpha  occ. eigenvalues --   -5.24452  -3.36328  -3.36247  -3.36247  -0.49816
 Alpha  occ. eigenvalues --   -0.49816  -0.49700  -0.49700  -0.49680  -0.33293
 Alpha virt. eigenvalues --   -0.00276   0.02584   0.02584   0.03399   0.04614
 Alpha virt. eigenvalues --    0.08844   0.08844   0.08855   0.13382   0.13523
 Alpha virt. eigenvalues --    0.13523   0.13749   0.13749   0.19363   0.21870

 Mulliken charges and spin densities:
               1          2
     1  Cu   0.357601   0.000000
     2  H   -0.357601   0.000000
 Sum of Mulliken charges =   0.00000   0.00000

 Dipole moment (field-independent basis, Debye):
    X=              0.0000    Y=              0.0000    Z=              4.3859  Tot=              4.3859
 Quadrupole moment (field-independent basis, Debye-Ang):
   XX=            -13.6309   YY=            -13.6309   ZZ=            -17.2367
   XY=              0.0000   XZ=              0.0000   YZ=              0.0000

 P ROCCSD(T)=(MaxCyc=150, Full)/Gen SCF=(maxcycle=400) Pseudo=Read Inte
 -0=-197.673958\MP4SDQ=-197.6285066\CCSD=-197.5562204\CCSD(T)=-197.5946
 Normal termination of Gaussian 16 at Wed Apr  4 23:53:13 2018.
