 Gaussian 16, Revision A.03,
 Gaussian 16:  ES64L-G16RevA.03 25-Dec-2016

 ----------------------------------------------------------------------
 #P ROCCSD(T)=(maxcyc=150, Full, SaveAmplitudes, ReadAmplitudes)/Gen 5d
  7f SCF=(maxcycles=300) Integral(NoXCTest) MaxDisk=500GB Pop=Regular P
 seudo=Read Guess=Read IOp(5/15=2)
 ----------------------------------------------------------------------

 ---
 CrO
 ---
 Symbolic Z-matrix:
 Charge =  0 Multiplicity = 5

                         Standard orientation:
 ---------------------------------------------------------------------
 Center     Atomic      Atomic             Coordinates (Angstroms)
 Number     Number       Type             X           Y           Z
 ---------------------------------------------------------------------
      1         24           0        0.000000    0.000000    0.400000
      2          8           0        0.000000    0.000000   -1.200000
 ---------------------------------------------------------------------

 SCF Done:  E(ROHF) =  -102.021224989     A.U. after   29 cycles
 E2 =    -0.8980907590D+00 EUMP2 =    -0.10291931574821D+03
 CCSD(T)
 CCSD(T)= -0.10294788542D+03

 Unable to determine electronic state:  an orbital has unidentified symmetry.
 Alpha  occ. eigenvalues --   -3.72137  -2.49631  -2.45770  -2.42254  -1.16277
 Alpha  occ. eigenvalues --   -0.62019  -0.58608  -0.57289  -0.47913  -0.43252
 Alpha  occ. eigenvalues --   -0.38840  -0.31914
 Alpha virt. eigenvalues --   -0.00118   0.00451   0.01656   0.03103   0.03902
 Alpha virt. eigenvalues --    0.04388   0.05990   0.07561   0.07576   0.08048
 Alpha virt. eigenvalues --    0.08100   0.08437   0.13129   0.13331   0.15663

 Mulliken charges and spin densities:
               1          2
     1  Cr   1.085959   3.862745
     2  O   -1.085959   0.137255
 Sum of Mulliken charges =  -0.00000   4.00000

 Dipole moment (field-independent basis, Debye):
    X=              0.0000    Y=              0.0000    Z=              6.0281  Tot=              6.0281
 Quadrupole moment (field-independent basis, Debye-Ang):
   XX=            -20.6365   YY=            -19.5377   ZZ=            -24.1606
   XY=              0.0000   XZ=              0.0000   YZ=              0.0000

 \\#P ROCCSD(T)=(maxcyc=150, Full, SaveAmplitudes, ReadAmplitudes)/Gen
 =-102.8967875\CCSD(T)=-102.9478854\RMSD=2.289e-09\PG=C*V [C*(O1Cr1)]\\
 Normal termination of Gaussian 16 at Mon Mar 12 14:34:49 2018.
