 Gaussian 16, Revision A.03,
 Gaussian 16:  ES64L-G16RevA.03 25-Dec-2016

 ----------------------------------------------------------------------
 #P ROCCSD(T)=(maxcyc=150, Full, SaveAmplitudes, ReadAmplitudes)/Gen 5d
  7f SCF=(maxcycles=300) Integral(NoXCTest) MaxDisk=500GB Pop=Regular P
 seudo=Read Guess=Read
 ----------------------------------------------------------------------

 ---
 ScO
 ---
 Symbolic Z-matrix:
 Charge =  0 Multiplicity = 2

                         Standard orientation:
 ---------------------------------------------------------------------
 Center     Atomic      Atomic             Coordinates (Angstroms)
 Number     Number       Type             X           Y           Z
 ---------------------------------------------------------------------
      1         21           0        0.000000    0.000000    0.331034
      2          8           0        0.000000    0.000000   -0.868966
 ---------------------------------------------------------------------

 SCF Done:  E(ROHF) =  -61.6562399132     A.U. after   17 cycles
 E2 =    -0.6858570125D+00 EUMP2 =    -0.62342096925721D+02
 CCSD(T)
 CCSD(T)= -0.62370867597D+02

 The electronic state is 2-SG.
 Alpha  occ. eigenvalues --   -2.61761  -1.81669  -1.51724  -1.51724  -1.04427
 Alpha  occ. eigenvalues --   -0.63758  -0.63758  -0.47773  -0.17893
 Alpha virt. eigenvalues --    0.00992   0.00992   0.01647   0.02534   0.02825
 Alpha virt. eigenvalues --    0.02825   0.02860   0.02860   0.02885   0.04339
 Alpha virt. eigenvalues --    0.04339   0.06514   0.08155   0.08155   0.08383

 Mulliken charges and spin densities:
               1          2
     1  Sc   0.810446   1.018037
     2  O   -0.810446  -0.018037
 Sum of Mulliken charges =  -0.00000   1.00000

 Dipole moment (field-independent basis, Debye):
    X=              0.0000    Y=              0.0000    Z=             -1.2073  Tot=              1.2073
 Quadrupole moment (field-independent basis, Debye-Ang):
   XX=            -23.4701   YY=            -23.4701   ZZ=            -28.9515
   XY=              0.0000   XZ=              0.0000   YZ=              0.0000

 \\#P ROCCSD(T)=(maxcyc=150, Full, SaveAmplitudes, ReadAmplitudes)/Gen
 562399\PMP2-0=-62.3420969\CCSD=-62.3417507\CCSD(T)=-62.3708676\RMSD=1.
 Normal termination of Gaussian 16 at Wed Mar  7 12:53:07 2018.
