 Gaussian 16, Revision A.03,
 Gaussian 16:  ES64L-G16RevA.03 25-Dec-2016

 ----------------------------------------------------------------------
 #P ROCCSD(T)=(maxcyc=150, Full)/Gen 5d 7f SCF=(maxcycles=300) Integral
 (NoXCTest) MaxDisk=500GB Pop=Regular Pseudo=Read Guess=Read
 ----------------------------------------------------------------------

 ---
 MnH
 ---
 Symbolic Z-matrix:
 Charge =  0 Multiplicity = 7

                         Standard orientation:
 ---------------------------------------------------------------------
 Center     Atomic      Atomic             Coordinates (Angstroms)
 Number     Number       Type             X           Y           Z
 ---------------------------------------------------------------------
      1         25           0        0.000000    0.000000    0.076923
      2          1           0        0.000000    0.000000   -1.923077
 ---------------------------------------------------------------------

 SCF Done:  E(ROHF) =  -104.056292587     A.U. after   17 cycles
 E2 =    -0.5906796585D+00 EUMP2 =    -0.10464697224555D+03
 CCSD(T)
 CCSD(T)= -0.10467063043D+03

 The electronic state is 7-SG.
 Alpha  occ. eigenvalues --   -4.17679  -2.82426  -2.82426  -2.82143  -0.65796
 Alpha  occ. eigenvalues --   -0.65796  -0.65109  -0.65109  -0.65063  -0.38712
 Alpha  occ. eigenvalues --   -0.27053
 Alpha virt. eigenvalues --    0.00944   0.00944   0.02148   0.02897   0.04836
 Alpha virt. eigenvalues --    0.04836   0.05576   0.05755   0.05755   0.06196
 Alpha virt. eigenvalues --    0.06196   0.09618   0.12187   0.13640   0.17987

 Mulliken charges and spin densities:
               1          2
     1  Mn   0.381338   5.952945
     2  H   -0.381338   0.047055
 Sum of Mulliken charges =  -0.00000   6.00000

 Dipole moment (field-independent basis, Debye):
    X=              0.0000    Y=              0.0000    Z=              2.4106  Tot=              2.4106
 Quadrupole moment (field-independent basis, Debye-Ang):
   XX=            -16.4521   YY=            -16.4521   ZZ=            -28.0299
   XY=              0.0000   XZ=              0.0000   YZ=              0.0000

 \\#P ROCCSD(T)=(maxcyc=150, Full)/Gen 5d 7f SCF=(maxcycles=300) Integr
 =-104.6469722\MP4SDQ=-104.6530475\CCSD=-104.6544504\CCSD(T)=-104.67063
 Normal termination of Gaussian 16 at Tue Feb 13 14:05:55 2018.
