 Gaussian 16, Revision A.03,
 Gaussian 16:  ES64L-G16RevA.03 25-Dec-2016

 ----------------------------------------------------------------------
 #P ROCCSD(T)=(maxcyc=150, Full)/Gen 5d 7f SCF=(maxcycles=300) Integral
 (NoXCTest, DKHSO) MaxDisk=500GB Pop=Regular IOp(5/15=2) Guess=Read
 ----------------------------------------------------------------------

 ---
 CrH
 ---
 Symbolic Z-matrix:
 Charge =  0 Multiplicity = 6

                         Standard orientation:
 ---------------------------------------------------------------------
 Center     Atomic      Atomic             Coordinates (Angstroms)
 Number     Number       Type             X           Y           Z
 ---------------------------------------------------------------------
      1         24           0        0.000000    0.000000    0.080000
      2          1           0        0.000000    0.000000   -1.920000
 ---------------------------------------------------------------------

 SCF Done:  E(ROHF) =  -1050.19588508     A.U. after   22 cycles
 E2 =    -0.9627087936D+00 EUMP2 =    -0.10511585938748D+04
 CCSD(T)
 CCSD(T)= -0.10511570388D+04

 The electronic state is 6-SG.
 Alpha  occ. eigenvalues -- -222.23484 -26.82806 -22.46204 -22.46204 -22.46191
 Alpha  occ. eigenvalues --   -3.69988  -2.45429  -2.45429  -2.41077  -0.57657
 Alpha  occ. eigenvalues --   -0.57657  -0.54187  -0.54187  -0.37860  -0.26769
 Alpha virt. eigenvalues --    0.00960   0.00960   0.01758   0.02361   0.04283
 Alpha virt. eigenvalues --    0.04559   0.04559   0.04878   0.04878   0.05228
 Alpha virt. eigenvalues --    0.05228   0.06338   0.08596   0.10994   0.15163

 Mulliken charges and spin densities:
               1          2
     1  Cr   0.348534   4.968207
     2  H   -0.348534   0.031793
 Sum of Mulliken charges =  -0.00000   5.00000

 Dipole moment (field-independent basis, Debye):
    X=              0.0000    Y=              0.0000    Z=              2.9333  Tot=              2.9333
 Quadrupole moment (field-independent basis, Debye-Ang):
   XX=            -17.5457   YY=            -17.5457   ZZ=            -27.3102
   XY=              0.0000   XZ=              0.0000   YZ=              0.0000

 \\#P ROCCSD(T)=(maxcyc=150, Full)/Gen 5d 7f SCF=(maxcycles=300) Integr
 Normal termination of Gaussian 16 at Tue Feb 13 23:53:19 2018.
