 Gaussian 16, Revision A.03,
 Gaussian 16:  ES64L-G16RevA.03 25-Dec-2016

 ----------------------------------------------------------------------
 #P ROCCSD(T)=(maxcyc=150, Full, SaveAmplitudes, ReadAmplitudes)/Gen 5d
  7f SCF=(maxcycles=300) Integral(NoXCTest) MaxDisk=500GB Pop=Regular P
 seudo=Read Guess=Read IOp(5/15=2)
 ----------------------------------------------------------------------

 ---
 ScO
 ---
 Symbolic Z-matrix:
 Charge =  0 Multiplicity = 2

                         Standard orientation:
 ---------------------------------------------------------------------
 Center     Atomic      Atomic             Coordinates (Angstroms)
 Number     Number       Type             X           Y           Z
 ---------------------------------------------------------------------
      1         21           0        0.000000    0.000000    0.441379
      2          8           0        0.000000    0.000000   -1.158621
 ---------------------------------------------------------------------

 SCF Done:  E(ROHF) =  -61.9640767396     A.U. after   17 cycles
 E2 =    -0.6798117786D+00 EUMP2 =    -0.62643888518237D+02
 CCSD(T)
 CCSD(T)= -0.62672438738D+02

 The electronic state is 2-SG.
 Alpha  occ. eigenvalues --   -2.63746  -1.66851  -1.60893  -1.60893  -1.12611
 Alpha  occ. eigenvalues --   -0.44189  -0.44189  -0.43888  -0.23980
 Alpha virt. eigenvalues --    0.00312   0.00312   0.01696   0.02290   0.03649
 Alpha virt. eigenvalues --    0.03649   0.03751   0.03751   0.04198   0.04198
 Alpha virt. eigenvalues --    0.04258   0.06025   0.09004   0.09004   0.10735

 Mulliken charges and spin densities:
               1          2
     1  Sc   1.275687   0.974975
     2  O   -1.275687   0.025025
 Sum of Mulliken charges =  -0.00000   1.00000

 Dipole moment (field-independent basis, Debye):
    X=              0.0000    Y=              0.0000    Z=              3.8599  Tot=              3.8599
 Quadrupole moment (field-independent basis, Debye-Ang):
   XX=            -21.8792   YY=            -21.8792   ZZ=            -31.7848
   XY=              0.0000   XZ=              0.0000   YZ=              0.0000

 \\#P ROCCSD(T)=(maxcyc=150, Full, SaveAmplitudes, ReadAmplitudes)/Gen
 5\CCSD=-62.6346188\CCSD(T)=-62.6724387\RMSD=1.320e-09\PG=C*V [C*(O1Sc1
 Normal termination of Gaussian 16 at Mon Mar  5 18:23:23 2018.
