 Gaussian 16, Revision A.03,
 Gaussian 16:  ES64L-G16RevA.03 25-Dec-2016

 ----------------------------------------------------------------------
 #P ROCCSD(T)=(MaxCyc=150, Full)/Gen SCF=(maxcycle=400, vshift=200) Int
 egral(DKHSO, NoXCTest) Pop=Regular MaxDisk=500GB Guess=Read IOp(5/15=2
 )
 ----------------------------------------------------------------------

 ---
 CoH
 ---
 Symbolic Z-matrix:
 Charge =  0 Multiplicity = 3

                         Standard orientation:
 ---------------------------------------------------------------------
 Center     Atomic      Atomic             Coordinates (Angstroms)
 Number     Number       Type             X           Y           Z
 ---------------------------------------------------------------------
      1         27           0        0.000000    0.000000    0.042857
      2          1           0        0.000000    0.000000   -1.157143
 ---------------------------------------------------------------------

 SCF Done:  E(ROHF) =  -1392.29937075     A.U. after   29 cycles
 E2 =    -0.1358541942D+01 EUMP2 =    -0.13936579126873D+04
 CCSD(T)
 CCSD(T)= -0.13936109906D+04

 Unable to determine electronic state:  partially filled degenerate orbitals.
 Alpha  occ. eigenvalues -- -285.59435 -35.28890 -30.05836 -30.05836 -30.05527
 Alpha  occ. eigenvalues --   -4.50253  -2.93974  -2.93466  -2.93466  -0.51755
 Alpha  occ. eigenvalues --   -0.49030  -0.45360  -0.45360  -0.44568  -0.30785
 Alpha virt. eigenvalues --    0.00778   0.02470   0.02470   0.02836   0.05656
 Alpha virt. eigenvalues --    0.07026   0.07405   0.07418   0.07539   0.07539
 Alpha virt. eigenvalues --    0.08474   0.08474   0.09759   0.19028   0.21067

 Mulliken charges and spin densities:
               1          2
     1  Co   0.432739   1.999311
     2  H   -0.432739   0.000689
 Sum of Mulliken charges =  -0.00000   2.00000

 Dipole moment (field-independent basis, Debye):
    X=              0.0000    Y=              0.0000    Z=              3.5648  Tot=              3.5648
 Quadrupole moment (field-independent basis, Debye-Ang):
   XX=            -14.2780   YY=            -14.2780   ZZ=            -16.4171
   XY=              0.0000   XZ=              0.0000   YZ=              0.0000

 \\#P ROCCSD(T)=(MaxCyc=150, Full)/Gen SCF=(maxcycle=400, vshift=200) I
 PMP2-0=-1393.6579127\MP4SDQ=-1393.6095483\CCSD=-1393.5755123\CCSD(T)=-
 Normal termination of Gaussian 16 at Sat Apr 21 18:11:32 2018.
