 Gaussian 16, Revision A.03,
 Gaussian 16:  ES64L-G16RevA.03 25-Dec-2016

 ----------------------------------------------------------------------
 #P ROCCSD(T)=(maxcyc=150, Full, SaveAmplitudes, ReadAmplitudes)/Gen 5d
  7f SCF=(maxcycles=300) Integral(NoXCTest, DKHSO) MaxDisk=500GB Pop=Re
 gular Guess=Read
 ----------------------------------------------------------------------

 ---
 MnO
 ---
 Symbolic Z-matrix:
 Charge =  0 Multiplicity = 6

                         Standard orientation:
 ---------------------------------------------------------------------
 Center     Atomic      Atomic             Coordinates (Angstroms)
 Number     Number       Type             X           Y           Z
 ---------------------------------------------------------------------
      1         25           0        0.000000    0.000000    0.363636
      2          8           0        0.000000    0.000000   -1.136364
 ---------------------------------------------------------------------

 SCF Done:  E(ROHF) =  -1232.19761227     A.U. after   22 cycles
 E2 =    -0.1431668972D+01 EUMP2 =    -0.12336292812430D+04
 CCSD(T)
 CCSD(T)= -0.12336276875D+04

 The electronic state is 6-SG.
 Alpha  occ. eigenvalues -- -242.53016 -29.63410 -24.98935 -24.98935 -24.98027
 Alpha  occ. eigenvalues --  -20.48380  -4.09119  -2.74239  -2.74239  -2.72116
 Alpha  occ. eigenvalues --   -1.18410  -0.68095  -0.68095  -0.63804  -0.63804
 Alpha  occ. eigenvalues --   -0.53015  -0.39040  -0.39040  -0.33421
 Alpha virt. eigenvalues --   -0.00373   0.01753   0.01753   0.03116   0.03534
 Alpha virt. eigenvalues --    0.05888   0.05888   0.05892   0.05892   0.06246
 Alpha virt. eigenvalues --    0.07034   0.07034   0.11894   0.13602   0.17802

 Mulliken charges and spin densities:
               1          2
     1  Mn   1.116080   4.814934
     2  O   -1.116080   0.185066
 Sum of Mulliken charges =  -0.00000   5.00000

 Dipole moment (field-independent basis, Debye):
    X=             -0.0000    Y=              0.0000    Z=              6.0571  Tot=              6.0571
 Quadrupole moment (field-independent basis, Debye-Ang):
   XX=            -19.7338   YY=            -19.7338   ZZ=            -23.2916
   XY=             -0.0000   XZ=              0.0000   YZ=             -0.0000

 \\#P ROCCSD(T)=(maxcyc=150, Full, SaveAmplitudes, ReadAmplitudes)/Gen
 1976123\PMP2-0=-1233.6292812\CCSD=-1233.581471\CCSD(T)=-1233.6276875\R
 Normal termination of Gaussian 16 at Wed Mar  7 06:02:41 2018.
