 Gaussian 16, Revision A.03,
 Gaussian 16:  ES64L-G16RevA.03 25-Dec-2016

 ----------------------------------------------------------------------
 #P ROCCSD(T)=(maxcyc=150, Full, SaveAmplitudes, ReadAmplitudes)/Gen 5d
  7f SCF=(maxcycles=300) Integral(NoXCTest) MaxDisk=500GB Pop=Regular P
 seudo=Read Guess=Read IOp(5/15=2)
 ----------------------------------------------------------------------

 ---
 CrO
 ---
 Symbolic Z-matrix:
 Charge =  0 Multiplicity = 5

                         Standard orientation:
 ---------------------------------------------------------------------
 Center     Atomic      Atomic             Coordinates (Angstroms)
 Number     Number       Type             X           Y           Z
 ---------------------------------------------------------------------
      1         24           0        0.000000    0.000000    0.300000
      2          8           0        0.000000    0.000000   -0.900000
 ---------------------------------------------------------------------

 SCF Done:  E(ROHF) =  -101.764734388     A.U. after   29 cycles
 E2 =    -0.9051667449D+00 EUMP2 =    -0.10266990113261D+03
 CCSD(T)
 CCSD(T)= -0.10267642201D+03

 Unable to determine electronic state:  an orbital has unidentified symmetry.
 Alpha  occ. eigenvalues --   -3.68154  -2.46930  -2.43381  -2.39562  -1.25408
 Alpha  occ. eigenvalues --   -0.74564  -0.68809  -0.65422  -0.50287  -0.50192
 Alpha  occ. eigenvalues --   -0.30347  -0.26585
 Alpha virt. eigenvalues --    0.01419   0.02446   0.02809   0.02809   0.05350
 Alpha virt. eigenvalues --    0.06978   0.07673   0.07743   0.07795   0.07797
 Alpha virt. eigenvalues --    0.09745   0.09936   0.12169   0.17747   0.20405

 Mulliken charges and spin densities:
               1          2
     1  Cr   0.853216   3.731993
     2  O   -0.853216   0.268007
 Sum of Mulliken charges =   0.00000   4.00000

 Dipole moment (field-independent basis, Debye):
    X=              0.0000    Y=              0.0000    Z=              0.2711  Tot=              0.2711
 Quadrupole moment (field-independent basis, Debye-Ang):
   XX=            -22.7696   YY=            -19.8351   ZZ=            -22.7735
   XY=              0.0000   XZ=              0.0000   YZ=              0.0000

 \\#P ROCCSD(T)=(maxcyc=150, Full, SaveAmplitudes, ReadAmplitudes)/Gen
 SD=-102.6363269\CCSD(T)=-102.676422\RMSD=2.760e-09\PG=C*V [C*(O1Cr1)]\
 Normal termination of Gaussian 16 at Mon Mar 12 14:30:47 2018.
