 Gaussian 16, Revision A.03,
 Gaussian 16:  ES64L-G16RevA.03 25-Dec-2016

 ----------------------------------------------------------------------
 #P ROCCSD(T)=(maxcyc=150, Full, SaveAmplitudes, ReadAmplitudes)/Gen 5d
  7f SCF=(maxcycles=300) Integral(NoXCTest) MaxDisk=500GB Pop=Regular P
 seudo=Read Guess=Read
 ----------------------------------------------------------------------

 ---
 CrO
 ---
 Symbolic Z-matrix:
 Charge =  0 Multiplicity = 5

                         Standard orientation:
 ---------------------------------------------------------------------
 Center     Atomic      Atomic             Coordinates (Angstroms)
 Number     Number       Type             X           Y           Z
 ---------------------------------------------------------------------
      1         24           0        0.000000    0.000000    0.350000
      2          8           0        0.000000    0.000000   -1.050000
 ---------------------------------------------------------------------

 SCF Done:  E(ROHF) =  -101.818034519     A.U. after   23 cycles
 E2 =    -0.9155390560D+00 EUMP2 =    -0.10273357357459D+03
 CCSD(T)
 CCSD(T)= -0.10274867435D+03

 Unable to determine electronic state:  an orbital has unidentified symmetry.
 Alpha  occ. eigenvalues --   -3.74731  -2.50081  -2.45886  -2.45243  -1.23791
 Alpha  occ. eigenvalues --   -0.65305  -0.56915  -0.53686  -0.53458  -0.52036
 Alpha  occ. eigenvalues --   -0.38505  -0.28555
 Alpha virt. eigenvalues --    0.01027   0.01598   0.02034   0.02733   0.04492
 Alpha virt. eigenvalues --    0.04907   0.05377   0.05379   0.05519   0.05724
 Alpha virt. eigenvalues --    0.06940   0.06947   0.10483   0.13636   0.14116

 Mulliken charges and spin densities:
               1          2
     1  Cr   0.936598   3.869957
     2  O   -0.936598   0.130043
 Sum of Mulliken charges =  -0.00000   4.00000

 Dipole moment (field-independent basis, Debye):
    X=              0.0000    Y=              0.0000    Z=              3.0948  Tot=              3.0948
 Quadrupole moment (field-independent basis, Debye-Ang):
   XX=            -21.0265   YY=            -19.7417   ZZ=            -24.1548
   XY=              0.0000   XZ=              0.0000   YZ=              0.0000

 \\#P ROCCSD(T)=(maxcyc=150, Full, SaveAmplitudes, ReadAmplitudes)/Gen
 MP2-0=-102.7335736\CCSD=-102.7023236\CCSD(T)=-102.7486744\RMSD=6.924e-
 Normal termination of Gaussian 16 at Fri Mar  9 17:53:58 2018.
