 Gaussian 16, Revision A.03,
 Gaussian 16:  ES64L-G16RevA.03 25-Dec-2016

 ----------------------------------------------------------------------
 #P ROCCSD(T)=(maxcyc=150, Full)/Gen 5d 7f SCF=(maxcycles=300, NoVarAcc
 , VShift=200) MaxDisk=100GB Pop=Regular Pseudo=Read Guess=Read
 ----------------------------------------------------------------------

 --
 Ti
 --
 Symbolic Z-matrix:
 Charge =  0 Multiplicity = 3

                         Standard orientation:
 ---------------------------------------------------------------------
 Center     Atomic      Atomic             Coordinates (Angstroms)
 Number     Number       Type             X           Y           Z
 ---------------------------------------------------------------------
      1         22           0        0.000000    0.000000    0.000000
 ---------------------------------------------------------------------

 SCF Done:  E(ROHF) =  -57.5231556683     A.U. after   22 cycles
 E2 =    -0.4378046260D+00 EUMP2 =    -0.57960960294330D+02
 CCSD(T)
 CCSD(T)= -0.57994793099D+02

 Unable to determine electronic state:  an orbital has unidentified symmetry.
 Alpha  occ. eigenvalues --   -2.98820  -1.89615  -1.89615  -1.89615  -0.43836
 Alpha  occ. eigenvalues --   -0.43836  -0.23004
 Alpha virt. eigenvalues --    0.01358   0.01358   0.01358   0.02031   0.03479
 Alpha virt. eigenvalues --    0.03479   0.03479   0.03510   0.03510   0.04668
 Alpha virt. eigenvalues --    0.04668   0.04668   0.09442   0.09442   0.09442

 Mulliken charges and spin densities:
               1          2
     1  Ti  -0.000000   2.000000
 Sum of Mulliken charges =  -0.00000   2.00000

 Dipole moment (field-independent basis, Debye):
    X=              0.0000    Y=              0.0000    Z=              0.0000  Tot=              0.0000
 Quadrupole moment (field-independent basis, Debye-Ang):
   XX=            -21.9915   YY=            -21.9915   ZZ=            -21.9915
   XY=              0.0000   XZ=             -0.0000   YZ=             -0.0000

 1\1\GINC-C465-021\SP\ROCCSD(T)-Full\Gen\Ti1(3)\AANNABE\13-Mar-2018\0\\
 #P ROCCSD(T)=(maxcyc=150, Full)/Gen 5d 7f SCF=(maxcycles=300, NoVarAcc
 , VShift=200) MaxDisk=100GB Pop=Regular Pseudo=Read Guess=Read\\Ti\\0,
 3\Ti,0,0.,0.,0.\\Version=ES64L-G16RevA.03\HF=-57.5231557\MP2=-57.96096
 03\MP3=-57.9781985\PUHF=-57.5231557\PMP2-0=-57.9609603\MP4SDQ=-57.9779
 261\CCSD=-57.9783123\CCSD(T)=-57.9947931\RMSD=6.306e-09\PG=OH [O(Ti1)]
 \\@

 Normal termination of Gaussian 16 at Tue Mar 13 13:34:44 2018.
