 Gaussian 16, Revision A.03,
 Gaussian 16:  ES64L-G16RevA.03 25-Dec-2016

 ----------------------------------------------------------------------
 #P ROCCSD(T)=(MaxCyc=150, Full)/Gen SCF=(maxcycle=400) Pseudo=Read Int
 egral(NoXCTest) Pop=Regular MaxDisk=500GB
 ----------------------------------------------------------------------

 ---
 FeO
 ---
 Symbolic Z-matrix:
 Charge =  0 Multiplicity = 5

                         Standard orientation:
 ---------------------------------------------------------------------
 Center     Atomic      Atomic             Coordinates (Angstroms)
 Number     Number       Type             X           Y           Z
 ---------------------------------------------------------------------
      1         26           0        0.000000    0.000000    0.305882
      2          8           0        0.000000    0.000000   -0.994118
 ---------------------------------------------------------------------

 SCF Done:  E(ROHF) =  -138.667052861     A.U. after   27 cycles
 E2 =    -0.1105556426D+01 EUMP2 =    -0.13977260928606D+03
 CCSD(T)
 CCSD(T)= -0.13976559392D+03

 Unable to determine electronic state:  partially filled degenerate orbitals.
 Alpha  occ. eigenvalues --   -4.36105  -2.97294  -2.91339  -2.91339  -1.27586
 Alpha  occ. eigenvalues --   -0.75783  -0.75783  -0.62640  -0.61547  -0.58154
 Alpha  occ. eigenvalues --   -0.43288  -0.43288  -0.30974
 Alpha virt. eigenvalues --    0.01624   0.02277   0.02277   0.03043   0.05296
 Alpha virt. eigenvalues --    0.06441   0.06441   0.06661   0.06671   0.07512
 Alpha virt. eigenvalues --    0.07974   0.07974   0.11463   0.15366   0.19481

 Mulliken charges and spin densities:
               1          2
     1  Fe   0.940415   3.743955
     2  O   -0.940415   0.256045
 Sum of Mulliken charges =  -0.00000   4.00000

 Dipole moment (field-independent basis, Debye):
    X=              0.0000    Y=              0.0000    Z=              2.9661  Tot=              2.9661
 Quadrupole moment (field-independent basis, Debye-Ang):
   XX=            -19.2440   YY=            -19.2440   ZZ=            -21.5168
   XY=              0.0000   XZ=              0.0000   YZ=              0.0000

 \\#P ROCCSD(T)=(MaxCyc=150, Full)/Gen SCF=(maxcycle=400) Pseudo=Read I
 6671\CCSD=-139.7179183\CCSD(T)=-139.7655939\RMSD=3.198e-09\PG=C*V [C*(
 Normal termination of Gaussian 16 at Sat Mar 24 02:56:17 2018.
