 Gaussian 16, Revision A.03,
 Gaussian 16:  ES64L-G16RevA.03 25-Dec-2016

 ----------------------------------------------------------------------
 #P ROCCSD(T)=(MaxCyc=150, Full)/Gen SCF=(maxcycle=400) Pseudo=Read Int
 egral(NoXCTest) Pop=Regular MaxDisk=500GB
 ----------------------------------------------------------------------

 ---
 FeO
 ---
 Symbolic Z-matrix:
 Charge =  0 Multiplicity = 5

                         Standard orientation:
 ---------------------------------------------------------------------
 Center     Atomic      Atomic             Coordinates (Angstroms)
 Number     Number       Type             X           Y           Z
 ---------------------------------------------------------------------
      1         26           0        0.000000    0.000000    0.305882
      2          8           0        0.000000    0.000000   -0.994118
 ---------------------------------------------------------------------

 SCF Done:  E(ROHF) =  -138.663592252     A.U. after   30 cycles
 E2 =    -0.1057314199D+01 EUMP2 =    -0.13972090645119D+03
 CCSD(T)
 CCSD(T)= -0.13971618173D+03

 Unable to determine electronic state:  partially filled degenerate orbitals.
 Alpha  occ. eigenvalues --   -4.36179  -2.97356  -2.91377  -2.91377  -1.27645
 Alpha  occ. eigenvalues --   -0.75787  -0.75787  -0.62649  -0.61558  -0.58161
 Alpha  occ. eigenvalues --   -0.43286  -0.43286  -0.30991
 Alpha virt. eigenvalues --    0.01727   0.02507   0.02507   0.03300   0.05862
 Alpha virt. eigenvalues --    0.08001   0.08001   0.09910   0.09941   0.10278
 Alpha virt. eigenvalues --    0.10278   0.10717   0.12619   0.16729   0.26013

 Mulliken charges and spin densities:
               1          2
     1  Fe   0.737363   3.755939
     2  O   -0.737363   0.244061
 Sum of Mulliken charges =  -0.00000   4.00000

 Dipole moment (field-independent basis, Debye):
    X=              0.0000    Y=              0.0000    Z=              2.9774  Tot=              2.9774
 Quadrupole moment (field-independent basis, Debye-Ang):
   XX=            -19.2441   YY=            -19.2441   ZZ=            -21.5368
   XY=              0.0000   XZ=              0.0000   YZ=              0.0000

 \\#P ROCCSD(T)=(MaxCyc=150, Full)/Gen SCF=(maxcycle=400) Pseudo=Read I
 8449\CCSD=-139.6706542\CCSD(T)=-139.7161817\RMSD=8.009e-09\PG=C*V [C*(
 Normal termination of Gaussian 16 at Sat Mar 24 01:01:47 2018.
