 Gaussian 16, Revision A.03,
 Gaussian 16:  ES64L-G16RevA.03 25-Dec-2016

 ----------------------------------------------------------------------
 #P ROCCSD(T)=(maxcyc=150, Full)/Gen 5d 7f SCF=(maxcycles=300, NoVarAcc
 , VShift=200) MaxDisk=100GB Pop=Regular Pseudo=Read Guess=Read IOp(5/1
 5=2)
 ----------------------------------------------------------------------

 --
 Sc
 --
 Symbolic Z-matrix:
 Charge =  0 Multiplicity = 2

                         Standard orientation:
 ---------------------------------------------------------------------
 Center     Atomic      Atomic             Coordinates (Angstroms)
 Number     Number       Type             X           Y           Z
 ---------------------------------------------------------------------
      1         21           0        0.000000    0.000000    0.000000
 ---------------------------------------------------------------------

 SCF Done:  E(ROHF) =  -46.1106395278     A.U. after   15 cycles
 E2 =    -0.3927812202D+00 EUMP2 =    -0.46503420747993D+02
 CCSD(T)
 CCSD(T)= -0.46536920620D+02

 Unable to determine electronic state:  an orbital has unidentified symmetry.
 Alpha  occ. eigenvalues --   -2.62151  -1.63142  -1.63142  -1.59293  -0.34626
 Alpha  occ. eigenvalues --   -0.21500
 Alpha virt. eigenvalues --    0.01168   0.01259   0.01259   0.02003   0.02626
 Alpha virt. eigenvalues --    0.02628   0.02628   0.02635   0.02650   0.04248
 Alpha virt. eigenvalues --    0.04368   0.04368   0.07406   0.07484   0.07484

 Mulliken charges and spin densities:
               1          2
     1  Sc  -0.000000   1.000000
 Sum of Mulliken charges =  -0.00000   1.00000

 Dipole moment (field-independent basis, Debye):
    X=              0.0000    Y=              0.0000    Z=              0.0000  Tot=              0.0000
 Quadrupole moment (field-independent basis, Debye-Ang):
   XX=            -23.3940   YY=            -23.3940   ZZ=            -23.0999
   XY=              0.0000   XZ=              0.0000   YZ=             -0.0000

 1\1\GINC-C506-092\SP\ROCCSD(T)-Full\Gen\Sc1(2)\AANNABE\01-Apr-2018\0\\
 #P ROCCSD(T)=(maxcyc=150, Full)/Gen 5d 7f SCF=(maxcycles=300, NoVarAcc
 , VShift=200) MaxDisk=100GB Pop=Regular Pseudo=Read Guess=Read IOp(5/1
 5=2)\\Sc\\0,2\Sc,0,0.,0.,0.\\Version=ES64L-G16RevA.03\HF=-46.1106395\M
 P2=-46.5034207\MP3=-46.5214153\PUHF=-46.1106395\PMP2-0=-46.5034207\MP4
 SDQ=-46.5207961\CCSD=-46.5210605\CCSD(T)=-46.5369206\RMSD=5.173e-09\PG
 =OH [O(Sc1)]\\@

 Normal termination of Gaussian 16 at Sun Apr  1 14:11:06 2018.
