 Gaussian 16, Revision A.03,
 Gaussian 16:  ES64L-G16RevA.03 25-Dec-2016

 ----------------------------------------------------------------------
 #P ROCCSD(T)=(maxcyc=150, Full, SaveAmplitudes, ReadAmplitudes)/Gen 5d
  7f SCF=(maxcycles=300) Integral(NoXCTest) MaxDisk=500GB Pop=Regular P
 seudo=Read Guess=Read
 ----------------------------------------------------------------------

 ---
 TiO
 ---
 Symbolic Z-matrix:
 Charge =  0 Multiplicity = 3

                         Standard orientation:
 ---------------------------------------------------------------------
 Center     Atomic      Atomic             Coordinates (Angstroms)
 Number     Number       Type             X           Y           Z
 ---------------------------------------------------------------------
      1         22           0        0.000000    0.000000    0.453333
      2          8           0        0.000000    0.000000   -1.246667
 ---------------------------------------------------------------------

 SCF Done:  E(ROHF) =  -73.5435899131     A.U. after   19 cycles
 E2 =    -0.7842332881D+00 EUMP2 =    -0.74327823201118D+02
 CCSD(T)
 CCSD(T)= -0.74356873899D+02

 Unable to determine electronic state:  an orbital has unidentified symmetry.
 Alpha  occ. eigenvalues --   -3.06527  -1.93140  -1.93140  -1.90132  -1.14291
 Alpha  occ. eigenvalues --   -0.48404  -0.44942  -0.41934  -0.41934  -0.27710
 Alpha virt. eigenvalues --   -0.00009  -0.00009   0.01086   0.02277   0.03391
 Alpha virt. eigenvalues --    0.03391   0.03651   0.03739   0.04153   0.04244
 Alpha virt. eigenvalues --    0.04244   0.04715   0.08357   0.10144   0.11446

 Mulliken charges and spin densities:
               1          2
     1  Ti   1.026146   1.972245
     2  O   -1.026146   0.027755
 Sum of Mulliken charges =  -0.00000   2.00000

 Dipole moment (field-independent basis, Debye):
    X=              0.0000    Y=              0.0000    Z=              5.2104  Tot=              5.2104
 Quadrupole moment (field-independent basis, Debye-Ang):
   XX=            -21.4374   YY=            -21.4374   ZZ=            -29.4726
   XY=              0.0000   XZ=              0.0000   YZ=              0.0000

 \\#P ROCCSD(T)=(maxcyc=150, Full, SaveAmplitudes, ReadAmplitudes)/Gen
 -0=-74.3278232\CCSD=-74.306307\CCSD(T)=-74.3568739\RMSD=3.457e-09\PG=C
 Normal termination of Gaussian 16 at Tue Mar 13 02:34:55 2018.
