 Gaussian 16, Revision A.03,
 Gaussian 16:  ES64L-G16RevA.03 25-Dec-2016

 ----------------------------------------------------------------------
 #P ROCCSD(T)=(MaxCyc=150, Full)/Gen SCF=(maxcycle=400, vshift=200) Int
 egral(DKHSO, NoXCTest) Pop=Regular MaxDisk=500GB Guess=Read IOp(5/15=2
 )
 ----------------------------------------------------------------------

 ---
 ZnH
 ---
 Symbolic Z-matrix:
 Charge =  0 Multiplicity = 2

                         Standard orientation:
 ---------------------------------------------------------------------
 Center     Atomic      Atomic             Coordinates (Angstroms)
 Number     Number       Type             X           Y           Z
 ---------------------------------------------------------------------
      1         30           0        0.000000    0.000000    0.048387
      2          1           0        0.000000    0.000000   -1.451613
 ---------------------------------------------------------------------

 SCF Done:  E(ROHF) =  -1794.80275000     A.U. after   17 cycles
 E2 =    -0.1549706765D+01 EUMP2 =    -0.17963524567610D+04
 CCSD(T)
 CCSD(T)= -0.17962763516D+04

 The electronic state is 2-SG.
 Alpha  occ. eigenvalues -- -357.59279 -45.36083 -39.16374 -39.16374 -39.16274
 Alpha  occ. eigenvalues --   -5.83087  -3.90979  -3.90955  -3.90955  -0.80037
 Alpha  occ. eigenvalues --   -0.79776  -0.79776  -0.79337  -0.79337  -0.46693
 Alpha  occ. eigenvalues --   -0.27505
 Alpha virt. eigenvalues --    0.01982   0.01982   0.02705   0.03611   0.06764
 Alpha virt. eigenvalues --    0.06764   0.07882   0.14221   0.17233   0.17905
 Alpha virt. eigenvalues --    0.17905   0.18130   0.18130   0.21318   0.23406

 Mulliken charges and spin densities:
               1          2
     1  Zn   0.295138   0.930505
     2  H   -0.295138   0.069495
 Sum of Mulliken charges =  -0.00000   1.00000

 Dipole moment (field-independent basis, Debye):
    X=              0.0000    Y=              0.0000    Z=              0.4892  Tot=              0.4892
 Quadrupole moment (field-independent basis, Debye-Ang):
   XX=            -14.7309   YY=            -14.7309   ZZ=            -21.1484
   XY=              0.0000   XZ=              0.0000   YZ=              0.0000

 \\#P ROCCSD(T)=(MaxCyc=150, Full)/Gen SCF=(maxcycle=400, vshift=200) I
 Normal termination of Gaussian 16 at Sat Apr 21 11:22:34 2018.
