 Gaussian 16, Revision A.03,
 Gaussian 16:  ES64L-G16RevA.03 25-Dec-2016

 ----------------------------------------------------------------------
 #P ROCCSD(T)=(MaxCyc=150, Full)/Gen SCF=(maxcycle=400, vshift=200) Int
 egral(DKHSO, NoXCTest) Pop=Regular MaxDisk=500GB Guess=Read IOp(5/15=2
 )
 ----------------------------------------------------------------------

 ---
 ZnH
 ---
 Symbolic Z-matrix:
 Charge =  0 Multiplicity = 2

                         Standard orientation:
 ---------------------------------------------------------------------
 Center     Atomic      Atomic             Coordinates (Angstroms)
 Number     Number       Type             X           Y           Z
 ---------------------------------------------------------------------
      1         30           0        0.000000    0.000000    0.048387
      2          1           0        0.000000    0.000000   -1.451613
 ---------------------------------------------------------------------

 SCF Done:  E(ROHF) =  -1794.80309143     A.U. after   22 cycles
 E2 =    -0.1591340051D+01 EUMP2 =    -0.17963944314812D+04
 CCSD(T)
 CCSD(T)= -0.17963166409D+04

 The electronic state is 2-SG.
 Alpha  occ. eigenvalues -- -357.59286 -45.36083 -39.16373 -39.16373 -39.16274
 Alpha  occ. eigenvalues --   -5.83086  -3.90978  -3.90953  -3.90953  -0.80036
 Alpha  occ. eigenvalues --   -0.79775  -0.79775  -0.79337  -0.79337  -0.46694
 Alpha  occ. eigenvalues --   -0.27506
 Alpha virt. eigenvalues --    0.01920   0.01920   0.02313   0.03293   0.06342
 Alpha virt. eigenvalues --    0.06342   0.06842   0.11908   0.13739   0.15337
 Alpha virt. eigenvalues --    0.15337   0.15464   0.15464   0.18470   0.20927

 Mulliken charges and spin densities:
               1          2
     1  Zn   0.272139   0.928656
     2  H   -0.272139   0.071344
 Sum of Mulliken charges =  -0.00000   1.00000

 Dipole moment (field-independent basis, Debye):
    X=              0.0000    Y=              0.0000    Z=              0.4895  Tot=              0.4895
 Quadrupole moment (field-independent basis, Debye-Ang):
   XX=            -14.7298   YY=            -14.7298   ZZ=            -21.1468
   XY=              0.0000   XZ=              0.0000   YZ=             -0.0000

 \\#P ROCCSD(T)=(MaxCyc=150, Full)/Gen SCF=(maxcycle=400, vshift=200) I
 \CCSD(T)=-1796.3166409\RMSD=2.925e-09\PG=C*V [C*(H1Zn1)]\\@
 Normal termination of Gaussian 16 at Sun Apr 29 20:29:38 2018.
