 Gaussian 16, Revision A.03,
 Gaussian 16:  ES64L-G16RevA.03 25-Dec-2016

 ----------------------------------------------------------------------
 #P ROHF/Gen 5d 7f SCF=(maxcycles=300) Integral(NoXCTest) MaxDisk=500GB
  Pop=Regular Pseudo=Read IOp(5/15=2)
 ----------------------------------------------------------------------

 ---
 CrO
 ---
 Symbolic Z-matrix:
 Charge =  0 Multiplicity = 5

                         Standard orientation:
 ---------------------------------------------------------------------
 Center     Atomic      Atomic             Coordinates (Angstroms)
 Number     Number       Type             X           Y           Z
 ---------------------------------------------------------------------
      1         24           0        0.000000    0.000000    0.400000
      2          8           0        0.000000    0.000000   -1.200000
 ---------------------------------------------------------------------

 SCF Done:  E(ROHF) =  -101.820983862     A.U. after   34 cycles

 Unable to determine electronic state:  an orbital has unidentified symmetry.
 Alpha  occ. eigenvalues --   -3.58883  -2.31220  -2.27899  -2.25812  -1.16699
 Alpha  occ. eigenvalues --   -0.45304  -0.43810  -0.42058  -0.09765  -0.09318
 Alpha  occ. eigenvalues --   -0.08391  -0.07942
 Alpha virt. eigenvalues --    0.00751   0.01360   0.02068   0.03430   0.04809
 Alpha virt. eigenvalues --    0.05405   0.06929   0.07649   0.07662   0.08223
 Alpha virt. eigenvalues --    0.08455   0.08871   0.13493   0.14965   0.16607

 Mulliken charges and spin densities:
               1          2
     1  Cr   1.074691   3.858767
     2  O   -1.074691   0.141233
 Sum of Mulliken charges =  -0.00000   4.00000

 Dipole moment (field-independent basis, Debye):
    X=              0.0000    Y=              0.0000    Z=              6.1114  Tot=              6.1114
 Quadrupole moment (field-independent basis, Debye-Ang):
   XX=            -20.6865   YY=            -19.5958   ZZ=            -24.0222
   XY=              0.0000   XZ=              0.0000   YZ=              0.0000

 Normal termination of Gaussian 16 at Fri Mar  9 15:49:08 2018.
