 Gaussian 16, Revision A.03,
 Gaussian 16:  ES64L-G16RevA.03 25-Dec-2016

 ----------------------------------------------------------------------
 #P ROCCSD(T)=(maxcyc=150, Full)/Gen 5d 7f SCF=(maxcycles=300, NoVarAcc
 , VShift=200) MaxDisk=100GB Pop=Regular Pseudo=Read Guess=Read
 ----------------------------------------------------------------------

 --
 Ti
 --
 Symbolic Z-matrix:
 Charge =  0 Multiplicity = 3

                         Standard orientation:
 ---------------------------------------------------------------------
 Center     Atomic      Atomic             Coordinates (Angstroms)
 Number     Number       Type             X           Y           Z
 ---------------------------------------------------------------------
      1         22           0        0.000000    0.000000    0.000000
 ---------------------------------------------------------------------

 SCF Done:  E(ROHF) =  -57.6283853710     A.U. after   12 cycles
 E2 =    -0.4382225832D+00 EUMP2 =    -0.58066607954200D+02
 CCSD(T)
 CCSD(T)= -0.58100771677D+02

 Unable to determine electronic state:  an orbital has unidentified symmetry.
 Alpha  occ. eigenvalues --   -3.00111  -1.89285  -1.89285  -1.89285  -0.43987
 Alpha  occ. eigenvalues --   -0.43987  -0.22995
 Alpha virt. eigenvalues --    0.01357   0.01357   0.01357   0.02031   0.03480
 Alpha virt. eigenvalues --    0.03480   0.03480   0.03510   0.03510   0.04664
 Alpha virt. eigenvalues --    0.04664   0.04664   0.09468   0.09468   0.09468

 Mulliken charges and spin densities:
               1          2
     1  Ti  -0.000000   2.000000
 Sum of Mulliken charges =  -0.00000   2.00000

 Dipole moment (field-independent basis, Debye):
    X=             -0.0000    Y=              0.0000    Z=              0.0000  Tot=              0.0000
 Quadrupole moment (field-independent basis, Debye-Ang):
   XX=            -21.9497   YY=            -21.9497   ZZ=            -21.9497
   XY=             -0.0000   XZ=              0.0000   YZ=              0.0000

 1\1\GINC-C464-033\SP\ROCCSD(T)-Full\Gen\Ti1(3)\AANNABE\13-Mar-2018\0\\
 #P ROCCSD(T)=(maxcyc=150, Full)/Gen 5d 7f SCF=(maxcycles=300, NoVarAcc
 , VShift=200) MaxDisk=100GB Pop=Regular Pseudo=Read Guess=Read\\Ti\\0,
 3\Ti,0,0.,0.,0.\\Version=ES64L-G16RevA.03\HF=-57.6283854\MP2=-58.06660
 8\MP3=-58.0841566\PUHF=-57.6283854\PMP2-0=-58.066608\MP4SDQ=-58.083884
 2\CCSD=-58.0842805\CCSD(T)=-58.1007717\RMSD=7.203e-09\PG=OH [O(Ti1)]\\
 @

 Normal termination of Gaussian 16 at Tue Mar 13 13:33:26 2018.
