 Gaussian 16, Revision A.03,
 Gaussian 16:  ES64L-G16RevA.03 25-Dec-2016

 ----------------------------------------------------------------------
 #P ROCCSD(T)=(maxcyc=150, Full)/Gen 5d 7f SCF=(maxcycles=300) Integral
 (NoXCTest) MaxDisk=500GB Pop=Regular Pseudo=Read IOp(5/15=2) Guess=Rea
 d
 ----------------------------------------------------------------------

 ---
 ScH
 ---
 Symbolic Z-matrix:
 Charge =  0 Multiplicity = 1

                         Standard orientation:
 ---------------------------------------------------------------------
 Center     Atomic      Atomic             Coordinates (Angstroms)
 Number     Number       Type             X           Y           Z
 ---------------------------------------------------------------------
      1         21           0        0.000000    0.000000    0.081818
      2          1           0        0.000000    0.000000   -1.718182
 ---------------------------------------------------------------------

 SCF Done:  E(ROHF) =  -46.7900870378     A.U. after   11 cycles
 E2 =    -0.4106220791D+00 EUMP2 =    -0.47200709116963D+02
 CCSD(T)
 CCSD(T)= -0.47246222837D+02

 The electronic state is 1-SG.
 Alpha  occ. eigenvalues --   -2.75599  -1.66119  -1.66119  -1.66077  -0.40596
 Alpha  occ. eigenvalues --   -0.23253
 Alpha virt. eigenvalues --    0.01123   0.01123   0.01589   0.02195   0.03553
 Alpha virt. eigenvalues --    0.03831   0.03831   0.03923   0.03923   0.04492
 Alpha virt. eigenvalues --    0.04492   0.04771   0.08208   0.08208   0.09025

 Mulliken charges and spin densities:
               1          2
     1  Sc   0.355750   0.000000
     2  H   -0.355750   0.000000
 Sum of Mulliken charges =  -0.00000   0.00000

 Dipole moment (field-independent basis, Debye):
    X=              0.0000    Y=              0.0000    Z=              1.4197  Tot=              1.4197
 Quadrupole moment (field-independent basis, Debye-Ang):
   XX=            -23.0548   YY=            -23.0548   ZZ=            -26.9714
   XY=              0.0000   XZ=              0.0000   YZ=              0.0000

 P ROCCSD(T)=(maxcyc=150, Full)/Gen 5d 7f SCF=(maxcycles=300) Integral(
 P2-0=-47.2007091\MP4SDQ=-47.227949\CCSD=-47.2278098\CCSD(T)=-47.246222
 Normal termination of Gaussian 16 at Wed Feb 14 04:47:16 2018.
