 Gaussian 16, Revision A.03,
 Gaussian 16:  ES64L-G16RevA.03 25-Dec-2016

 ----------------------------------------------------------------------
 #P ROCCSD(T)=(MaxCyc=150, FrzINGC)/Gen SCF=(maxcycle=400, vshift=200)
 Integral(DKHSO, NoXCTest) Pop=Regular MaxDisk=500GB Guess=Read IOp(5/1
 5=2)
 ----------------------------------------------------------------------

 ---
 CoH
 ---
 Symbolic Z-matrix:
 Charge =  0 Multiplicity = 3

                         Standard orientation:
 ---------------------------------------------------------------------
 Center     Atomic      Atomic             Coordinates (Angstroms)
 Number     Number       Type             X           Y           Z
 ---------------------------------------------------------------------
      1         27           0        0.000000    0.000000    0.042857
      2          1           0        0.000000    0.000000   -1.157143
 ---------------------------------------------------------------------

 SCF Done:  E(ROHF) =  -1392.29727954     A.U. after   76 cycles
 E2 =    -0.8840260740D+00 EUMP2 =    -0.13931813056165D+04
 CCSD(T)
 CCSD(T)= -0.13931425982D+04

 Unable to determine electronic state:  partially filled degenerate orbitals.
 Alpha  occ. eigenvalues -- -285.59445 -35.28916 -30.05864 -30.05864 -30.05556
 Alpha  occ. eigenvalues --   -4.50268  -2.93987  -2.93479  -2.93479  -0.51753
 Alpha  occ. eigenvalues --   -0.49030  -0.45355  -0.45355  -0.44565  -0.30788
 Alpha virt. eigenvalues --    0.00824   0.02704   0.02704   0.03091   0.05851
 Alpha virt. eigenvalues --    0.09297   0.09297   0.10232   0.11430   0.11471
 Alpha virt. eigenvalues --    0.11487   0.11520   0.11520   0.18765   0.26461

 Mulliken charges and spin densities:
               1          2
     1  Co   0.310422   1.967573
     2  H   -0.310422   0.032427
 Sum of Mulliken charges =  -0.00000   2.00000

 Dipole moment (field-independent basis, Debye):
    X=              0.0000    Y=              0.0000    Z=              3.5659  Tot=              3.5659
 Quadrupole moment (field-independent basis, Debye-Ang):
   XX=            -14.2882   YY=            -14.2882   ZZ=            -16.4193
   XY=              0.0000   XZ=              0.0000   YZ=              0.0000

 \#P ROCCSD(T)=(MaxCyc=150, FrzINGC)/Gen SCF=(maxcycle=400, vshift=200)
 Normal termination of Gaussian 16 at Sat Apr 21 22:11:38 2018.
