 Gaussian 16, Revision A.03,
 Gaussian 16:  ES64L-G16RevA.03 25-Dec-2016

 ----------------------------------------------------------------------
 #P ROCCSD(T)=(MaxCyc=150, Full)/Gen SCF=(maxcycle=400, vshift=200) Pse
 udo=Read Integral(NoXCTest) Pop=Regular MaxDisk=500GB
 ----------------------------------------------------------------------

 ---
 ZnO
 ---
 Symbolic Z-matrix:
 Charge =  0 Multiplicity = 1

                         Standard orientation:
 ---------------------------------------------------------------------
 Center     Atomic      Atomic             Coordinates (Angstroms)
 Number     Number       Type             X           Y           Z
 ---------------------------------------------------------------------
      1         30           0        0.000000    0.000000    0.421053
      2          8           0        0.000000    0.000000   -1.578947
 ---------------------------------------------------------------------

 SCF Done:  E(ROHF) =  -240.885793951     A.U. after   19 cycles
 E2 =    -0.1291836359D+01 EUMP2 =    -0.24217763030944D+03
 CCSD(T)
 CCSD(T)= -0.24214603535D+03

 The electronic state is 1-SG.
 Alpha  occ. eigenvalues --   -5.89688  -3.97627  -3.97627  -3.97563  -1.17076
 Alpha  occ. eigenvalues --   -0.81877  -0.81877  -0.81806  -0.81806  -0.81085
 Alpha  occ. eigenvalues --   -0.44433  -0.44433  -0.34831
 Alpha virt. eigenvalues --   -0.03989   0.02453   0.02453   0.02825   0.04446
 Alpha virt. eigenvalues --    0.08367   0.08367   0.13060   0.17359   0.21187
 Alpha virt. eigenvalues --    0.22404   0.22404   0.24785   0.24785   0.30151

 Mulliken charges and spin densities:
               1          2
     1  Zn   0.685596   0.000000
     2  O   -0.685596   0.000000
 Sum of Mulliken charges =  -0.00000   0.00000

 Dipole moment (field-independent basis, Debye):
    X=              0.0000    Y=              0.0000    Z=              5.6304  Tot=              5.6304
 Quadrupole moment (field-independent basis, Debye-Ang):
   XX=            -18.8081   YY=            -18.8081   ZZ=            -22.0498
   XY=              0.0000   XZ=              0.0000   YZ=              0.0000

 P ROCCSD(T)=(MaxCyc=150, Full)/Gen SCF=(maxcycle=400, vshift=200) Pseu
 03\MP4SDQ=-242.1291435\CCSD=-242.09845\CCSD(T)=-242.1460354\RMSD=8.426
 Normal termination of Gaussian 16 at Fri May  4 12:20:53 2018.
