 Gaussian 16, Revision A.03,
 Gaussian 16:  ES64L-G16RevA.03 25-Dec-2016

 ----------------------------------------------------------------------
 #P ROCCSD(T)=(MaxCyc=150, Full)/Gen SCF=(maxcycle=400, vshift=200) Pse
 udo=Read Integral(NoXCTest) Pop=Regular MaxDisk=500GB
 ----------------------------------------------------------------------

 ---
 ZnO
 ---
 Symbolic Z-matrix:
 Charge =  0 Multiplicity = 1

                         Standard orientation:
 ---------------------------------------------------------------------
 Center     Atomic      Atomic             Coordinates (Angstroms)
 Number     Number       Type             X           Y           Z
 ---------------------------------------------------------------------
      1         30           0        0.000000    0.000000    0.421053
      2          8           0        0.000000    0.000000   -1.578947
 ---------------------------------------------------------------------

 SCF Done:  E(ROHF) =  -240.888538075     A.U. after   19 cycles
 E2 =    -0.1358929241D+01 EUMP2 =    -0.24224746731577D+03
 CCSD(T)
 CCSD(T)= -0.24221348059D+03

 The electronic state is 1-SG.
 Alpha  occ. eigenvalues --   -5.89667  -3.97604  -3.97604  -3.97535  -1.17040
 Alpha  occ. eigenvalues --   -0.81861  -0.81861  -0.81792  -0.81792  -0.81064
 Alpha  occ. eigenvalues --   -0.44453  -0.44453  -0.34811
 Alpha virt. eigenvalues --   -0.03973   0.02262   0.02262   0.02582   0.04020
 Alpha virt. eigenvalues --    0.07337   0.07337   0.11616   0.16509   0.16786
 Alpha virt. eigenvalues --    0.17888   0.17888   0.19400   0.19400   0.23242

 Mulliken charges and spin densities:
               1          2
     1  Zn   0.655922   0.000000
     2  O   -0.655922   0.000000
 Sum of Mulliken charges =  -0.00000   0.00000

 Dipole moment (field-independent basis, Debye):
    X=              0.0000    Y=              0.0000    Z=              5.6167  Tot=              5.6167
 Quadrupole moment (field-independent basis, Debye-Ang):
   XX=            -18.7961   YY=            -18.7961   ZZ=            -22.0526
   XY=              0.0000   XZ=              0.0000   YZ=              0.0000

 P ROCCSD(T)=(MaxCyc=150, Full)/Gen SCF=(maxcycle=400, vshift=200) Pseu
 4673\MP4SDQ=-242.1937605\CCSD=-242.1633512\CCSD(T)=-242.2134806\RMSD=5
 Normal termination of Gaussian 16 at Fri May  4 14:36:39 2018.
