 Gaussian 16, Revision A.03,
 Gaussian 16:  ES64L-G16RevA.03 25-Dec-2016

 ----------------------------------------------------------------------
 #P ROCCSD(T)=(maxcyc=150, Full, SaveAmplitudes, ReadAmplitudes)/Gen 5d
  7f SCF=(maxcycles=300, VShift=400) Integral(NoXCTest) MaxDisk=500GB P
 op=Full Pseudo=Read Guess=Read
 ----------------------------------------------------------------------

 ---
 ScO
 ---
 Symbolic Z-matrix:
 Charge =  0 Multiplicity = 2

                         Standard orientation:
 ---------------------------------------------------------------------
 Center     Atomic      Atomic             Coordinates (Angstroms)
 Number     Number       Type             X           Y           Z
 ---------------------------------------------------------------------
      1         21           0        0.000000    0.000000    0.468966
      2          8           0        0.000000    0.000000   -1.231034
 ---------------------------------------------------------------------

 SCF Done:  E(ROHF) =  -61.9461702334     A.U. after   44 cycles
 E2 =    -0.6814823929D+00 EUMP2 =    -0.62627652626310D+02
 CCSD(T)
 CCSD(T)= -0.62657631070D+02

 The electronic state is 2-SG.
 Alpha  occ. eigenvalues --   -2.65187  -1.67134  -1.64228  -1.64228  -1.12707
 Alpha  occ. eigenvalues --   -0.42758  -0.41146  -0.41146  -0.25214
 Alpha virt. eigenvalues --   -0.00055  -0.00055   0.01464   0.02224   0.03524
 Alpha virt. eigenvalues --    0.03524   0.03577   0.03577   0.04201   0.04201
 Alpha virt. eigenvalues --    0.04378   0.05442   0.08075   0.08075   0.10528

 Mulliken charges and spin densities:
               1          2
     1  Sc   1.255295   0.975005
     2  O   -1.255295   0.024995
 Sum of Mulliken charges =  -0.00000   1.00000

 Dipole moment (field-independent basis, Debye):
    X=              0.0000    Y=              0.0000    Z=              4.8185  Tot=              4.8185
 Quadrupole moment (field-independent basis, Debye-Ang):
   XX=            -21.8723   YY=            -21.8723   ZZ=            -32.7126
   XY=              0.0000   XZ=              0.0000   YZ=              0.0000

 \\#P ROCCSD(T)=(maxcyc=150, Full, SaveAmplitudes, ReadAmplitudes)/Gen
 UHF=-61.9461702\PMP2-0=-62.6276526\CCSD=-62.6171981\CCSD(T)=-62.657631
 Normal termination of Gaussian 16 at Thu Apr 19 07:50:13 2018.
