 Gaussian 16, Revision A.03,
 Gaussian 16:  ES64L-G16RevA.03 25-Dec-2016

 ----------------------------------------------------------------------
 #P ROCCSD(T)=(MaxCyc=150, Full)/Gen SCF=(maxcycle=400) Integral(DKHSO,
  NoXCTest) Pop=Regular MaxDisk=500GB
 ----------------------------------------------------------------------

 ---
 FeO
 ---
 Symbolic Z-matrix:
 Charge =  0 Multiplicity = 5

                         Standard orientation:
 ---------------------------------------------------------------------
 Center     Atomic      Atomic             Coordinates (Angstroms)
 Number     Number       Type             X           Y           Z
 ---------------------------------------------------------------------
      1         26           0        0.000000    0.000000    0.352941
      2          8           0        0.000000    0.000000   -1.147059
 ---------------------------------------------------------------------

 SCF Done:  E(ROHF) =  -1346.16223519     A.U. after   36 cycles
 E2 =    -0.1469660844D+01 EUMP2 =    -0.13476318960346D+04
 CCSD(T)
 CCSD(T)= -0.13476306155D+04

 Unable to determine electronic state:  partially filled degenerate orbitals.
 Alpha  occ. eigenvalues -- -263.66475 -32.47056 -27.55063 -27.52761 -27.52761
 Alpha  occ. eigenvalues --  -20.45792  -4.38154  -2.96731  -2.90223  -2.90223
 Alpha  occ. eigenvalues --   -1.16512  -0.68107  -0.68107  -0.62540  -0.60716
 Alpha  occ. eigenvalues --   -0.57896  -0.36730  -0.36730  -0.34969
 Alpha virt. eigenvalues --   -0.02948   0.02120   0.02120   0.02644   0.03965
 Alpha virt. eigenvalues --    0.07633   0.07633   0.09081   0.09758   0.09788
 Alpha virt. eigenvalues --    0.10762   0.10762   0.14382   0.15062   0.25573

 Mulliken charges and spin densities:
               1          2
     1  Fe   1.095204   3.788194
     2  O   -1.095204   0.211806
 Sum of Mulliken charges =  -0.00000   4.00000

 Dipole moment (field-independent basis, Debye):
    X=              0.0000    Y=              0.0000    Z=              7.5622  Tot=              7.5622
 Quadrupole moment (field-independent basis, Debye-Ang):
   XX=            -18.6638   YY=            -18.6638   ZZ=            -21.7320
   XY=              0.0000   XZ=              0.0000   YZ=              0.0000

 \\#P ROCCSD(T)=(MaxCyc=150, Full)/Gen SCF=(maxcycle=400) Integral(DKHS
 22\CCSD=-1347.5823588\CCSD(T)=-1347.6306155\RMSD=5.467e-09\PG=C*V [C*(
 Normal termination of Gaussian 16 at Thu Mar  1 07:29:13 2018.
