 Gaussian 16, Revision A.03,
 Gaussian 16:  ES64L-G16RevA.03 25-Dec-2016

 ----------------------------------------------------------------------
 #P ROCCSD(T)=(MaxCyc=150, Full)/Gen SCF=(maxcycle=400) Integral(DKHSO,
  NoXCTest) Pop=Regular MaxDisk=500GB
 ----------------------------------------------------------------------

 ---
 FeO
 ---
 Symbolic Z-matrix:
 Charge =  0 Multiplicity = 5

                         Standard orientation:
 ---------------------------------------------------------------------
 Center     Atomic      Atomic             Coordinates (Angstroms)
 Number     Number       Type             X           Y           Z
 ---------------------------------------------------------------------
      1         26           0        0.000000    0.000000    0.352941
      2          8           0        0.000000    0.000000   -1.147059
 ---------------------------------------------------------------------

 SCF Done:  E(ROHF) =  -1346.16811210     A.U. after   36 cycles
 E2 =    -0.1536421882D+01 EUMP2 =    -0.13477045339838D+04
 CCSD(T)
 CCSD(T)= -0.13477008680D+04

 Unable to determine electronic state:  partially filled degenerate orbitals.
 Alpha  occ. eigenvalues -- -263.66466 -32.47032 -27.55033 -27.52738 -27.52738
 Alpha  occ. eigenvalues --  -20.45628  -4.38133  -2.96701  -2.90206  -2.90206
 Alpha  occ. eigenvalues --   -1.16439  -0.68107  -0.68107  -0.62539  -0.60695
 Alpha  occ. eigenvalues --   -0.57898  -0.36737  -0.36737  -0.34955
 Alpha virt. eigenvalues --   -0.02944   0.01826   0.01826   0.02362   0.03559
 Alpha virt. eigenvalues --    0.06403   0.06403   0.06544   0.06554   0.06633
 Alpha virt. eigenvalues --    0.08124   0.08124   0.12367   0.14034   0.19456

 Mulliken charges and spin densities:
               1          2
     1  Fe   1.123660   3.793633
     2  O   -1.123660   0.206367
 Sum of Mulliken charges =  -0.00000   4.00000

 Dipole moment (field-independent basis, Debye):
    X=              0.0000    Y=             -0.0000    Z=              7.5523  Tot=              7.5523
 Quadrupole moment (field-independent basis, Debye-Ang):
   XX=            -18.6622   YY=            -18.6622   ZZ=            -21.7113
   XY=              0.0000   XZ=              0.0000   YZ=             -0.0000

 \\#P ROCCSD(T)=(MaxCyc=150, Full)/Gen SCF=(maxcycle=400) Integral(DKHS
 9636\CCSD=-1347.6501632\CCSD(T)=-1347.700868\RMSD=7.425e-09\PG=C*V [C*
 Normal termination of Gaussian 16 at Thu Mar  1 13:32:48 2018.
