 Gaussian 16, Revision A.03,
 Gaussian 16:  ES64L-G16RevA.03 25-Dec-2016

 ----------------------------------------------------------------------
 #P ROCCSD(T)=(maxcyc=150, Full)/Gen 5d 7f SCF=(maxcycles=300, NoVarAcc
 , VShift=200) MaxDisk=100GB Pop=Regular Pseudo=Read Guess=Read
 ----------------------------------------------------------------------

 --
 Mn
 --
 Symbolic Z-matrix:
 Charge =  0 Multiplicity = 6

                         Standard orientation:
 ---------------------------------------------------------------------
 Center     Atomic      Atomic             Coordinates (Angstroms)
 Number     Number       Type             X           Y           Z
 ---------------------------------------------------------------------
      1         25           0        0.000000    0.000000    0.000000
 ---------------------------------------------------------------------

 SCF Done:  E(ROHF) =  -103.693799645     A.U. after   20 cycles
 E2 =    -0.6099276990D+00 EUMP2 =    -0.10430372734448D+03
 CCSD(T)
 CCSD(T)= -0.10432509840D+03

 The electronic state is 6-A1G.
 Alpha  occ. eigenvalues --   -4.08810  -2.74996  -2.74996  -2.74996  -0.62670
 Alpha  occ. eigenvalues --   -0.62670  -0.62670  -0.62670  -0.62670  -0.26773
 Alpha virt. eigenvalues --    0.01709   0.01709   0.01709   0.02544   0.05764
 Alpha virt. eigenvalues --    0.05764   0.05764   0.06095   0.06095   0.06095
 Alpha virt. eigenvalues --    0.06095   0.06095   0.13392   0.19353   0.19353

 Mulliken charges and spin densities:
               1          2
     1  Mn  -0.000000   5.000000
 Sum of Mulliken charges =  -0.00000   5.00000

 Dipole moment (field-independent basis, Debye):
    X=              0.0000    Y=              0.0000    Z=              0.0000  Tot=              0.0000
 Quadrupole moment (field-independent basis, Debye-Ang):
   XX=            -18.7667   YY=            -18.7667   ZZ=            -18.7667
   XY=             -0.0000   XZ=              0.0000   YZ=              0.0000

 1\1\GINC-C402-122\SP\ROCCSD(T)-Full\Gen\Mn1(6)\AANNABE\12-Mar-2018\0\\
 #P ROCCSD(T)=(maxcyc=150, Full)/Gen 5d 7f SCF=(maxcycles=300, NoVarAcc
 , VShift=200) MaxDisk=100GB Pop=Regular Pseudo=Read Guess=Read\\Mn\\0,
 6\Mn,0,0.,0.,0.\\Version=ES64L-G16RevA.03\State=6-A1G\HF=-103.6937996\
 MP2=-104.3037273\MP3=-104.3034746\PUHF=-103.6937996\PMP2-0=-104.303727
 3\MP4SDQ=-104.3057728\CCSD=-104.3059491\CCSD(T)=-104.3250984\RMSD=6.41
 6e-09\PG=OH [O(Mn1)]\\@

 Normal termination of Gaussian 16 at Mon Mar 12 14:07:14 2018.
