 Gaussian 16, Revision A.03,
 Gaussian 16:  ES64L-G16RevA.03 25-Dec-2016

 ----------------------------------------------------------------------
 #P ROCCSD(T)=(maxcyc=150, Full, SaveAmplitudes, ReadAmplitudes)/Gen 5d
  7f SCF=(maxcycles=300) Integral(NoXCTest) MaxDisk=500GB Pop=Regular P
 seudo=Read Guess=Read
 ----------------------------------------------------------------------

 ---
 MnO
 ---
 Symbolic Z-matrix:
 Charge =  0 Multiplicity = 6

                         Standard orientation:
 ---------------------------------------------------------------------
 Center     Atomic      Atomic             Coordinates (Angstroms)
 Number     Number       Type             X           Y           Z
 ---------------------------------------------------------------------
      1         25           0        0.000000    0.000000    0.290909
      2          8           0        0.000000    0.000000   -0.909091
 ---------------------------------------------------------------------

 SCF Done:  E(ROHF) =  -118.881390432     A.U. after   22 cycles
 E2 =    -0.9784369782D+00 EUMP2 =    -0.11985982740999D+03
 CCSD(T)
 CCSD(T)= -0.11985921908D+03

 The electronic state is 6-SG.
 Alpha  occ. eigenvalues --   -4.13951  -2.80338  -2.76424  -2.76424  -1.29959
 Alpha  occ. eigenvalues --   -0.78590  -0.78590  -0.66092  -0.59702  -0.59702
 Alpha  occ. eigenvalues --   -0.38260  -0.38260  -0.28922
 Alpha virt. eigenvalues --    0.02205   0.02429   0.02429   0.02744   0.05515
 Alpha virt. eigenvalues --    0.06006   0.06006   0.06021   0.06021   0.08111
 Alpha virt. eigenvalues --    0.08111   0.08962   0.10934   0.15159   0.18375

 Mulliken charges and spin densities:
               1          2
     1  Mn   0.953098   4.673763
     2  O   -0.953098   0.326237
 Sum of Mulliken charges =  -0.00000   5.00000

 Dipole moment (field-independent basis, Debye):
    X=              0.0000    Y=              0.0000    Z=              1.2845  Tot=              1.2845
 Quadrupole moment (field-independent basis, Debye-Ang):
   XX=            -20.1946   YY=            -20.1946   ZZ=            -22.3060
   XY=              0.0000   XZ=              0.0000   YZ=              0.0000

 \\#P ROCCSD(T)=(maxcyc=150, Full, SaveAmplitudes, ReadAmplitudes)/Gen
 8.8813904\PMP2-0=-119.8598274\CCSD=-119.8198081\CCSD(T)=-119.8592191\R
 Normal termination of Gaussian 16 at Fri Mar  9 19:00:18 2018.
