 Gaussian 16, Revision A.03,
 Gaussian 16:  ES64L-G16RevA.03 25-Dec-2016

 ----------------------------------------------------------------------
 #P ROCCSD(T)=(MaxCyc=150, Full)/Gen SCF=(maxcycle=400, vshift=200) Int
 egral(DKHSO, NoXCTest) Pop=Regular MaxDisk=500GB Guess=Read IOp(5/15=2
 )
 ----------------------------------------------------------------------

 ---
 CoH
 ---
 Symbolic Z-matrix:
 Charge =  0 Multiplicity = 3

                         Standard orientation:
 ---------------------------------------------------------------------
 Center     Atomic      Atomic             Coordinates (Angstroms)
 Number     Number       Type             X           Y           Z
 ---------------------------------------------------------------------
      1         27           0        0.000000    0.000000    0.046429
      2          1           0        0.000000    0.000000   -1.253571
 ---------------------------------------------------------------------

 SCF Done:  E(ROHF) =  -1392.33031018     A.U. after   34 cycles
 E2 =    -0.1348512481D+01 EUMP2 =    -0.13936788226640D+04
 CCSD(T)
 CCSD(T)= -0.13936338723D+04

 Unable to determine electronic state:  partially filled degenerate orbitals.
 Alpha  occ. eigenvalues -- -285.58919 -35.28307 -30.05302 -30.05302 -30.04987
 Alpha  occ. eigenvalues --   -4.49742  -2.93411  -2.93135  -2.93135  -0.50465
 Alpha  occ. eigenvalues --   -0.48784  -0.44566  -0.44566  -0.44231  -0.31788
 Alpha virt. eigenvalues --    0.00511   0.02470   0.02470   0.02899   0.05332
 Alpha virt. eigenvalues --    0.06999   0.07387   0.07400   0.07551   0.07551
 Alpha virt. eigenvalues --    0.08582   0.08582   0.09853   0.19119   0.20528

 Mulliken charges and spin densities:
               1          2
     1  Co   0.386521   1.993300
     2  H   -0.386521   0.006700
 Sum of Mulliken charges =  -0.00000   2.00000

 Dipole moment (field-independent basis, Debye):
    X=              0.0000    Y=              0.0000    Z=              3.8429  Tot=              3.8429
 Quadrupole moment (field-independent basis, Debye-Ang):
   XX=            -14.1828   YY=            -14.1828   ZZ=            -16.8466
   XY=              0.0000   XZ=              0.0000   YZ=              0.0000

 \\#P ROCCSD(T)=(MaxCyc=150, Full)/Gen SCF=(maxcycle=400, vshift=200) I
 PMP2-0=-1393.6788227\MP4SDQ=-1393.631567\CCSD=-1393.5988947\CCSD(T)=-1
 Normal termination of Gaussian 16 at Sat Apr 21 22:04:18 2018.
