 Gaussian 16, Revision A.03,
 Gaussian 16:  ES64L-G16RevA.03 25-Dec-2016

 ----------------------------------------------------------------------
 #P ROCCSD(T)=(maxcyc=150, Full, SaveAmplitudes, ReadAmplitudes)/Gen 5d
  7f SCF=(maxcycles=300, VShift=400) Integral(NoXCTest) MaxDisk=500GB P
 op=Full Pseudo=Read Guess=Read
 ----------------------------------------------------------------------

 ---
 MnH
 ---
 Symbolic Z-matrix:
 Charge =  0 Multiplicity = 7

                         Standard orientation:
 ---------------------------------------------------------------------
 Center     Atomic      Atomic             Coordinates (Angstroms)
 Number     Number       Type             X           Y           Z
 ---------------------------------------------------------------------
      1         25           0        0.000000    0.000000    0.061538
      2          1           0        0.000000    0.000000   -1.538462
 ---------------------------------------------------------------------

 SCF Done:  E(ROHF) =  -103.794113208     A.U. after   24 cycles
 E2 =    -0.6045392762D+00 EUMP2 =    -0.10439865248420D+03
 CCSD(T)
 CCSD(T)= -0.10441940866D+03

 The electronic state is 7-SG.
 Alpha  occ. eigenvalues --   -4.14620  -2.76636  -2.76636  -2.76531  -0.64369
 Alpha  occ. eigenvalues --   -0.64143  -0.64143  -0.63493  -0.63493  -0.41445
 Alpha  occ. eigenvalues --   -0.25724
 Alpha virt. eigenvalues --    0.01247   0.01247   0.02113   0.02966   0.05110
 Alpha virt. eigenvalues --    0.05110   0.05665   0.05816   0.05816   0.06195
 Alpha virt. eigenvalues --    0.06195   0.08874   0.13630   0.14269   0.18058

 Mulliken charges and spin densities:
               1          2
     1  Mn   0.363849   5.945642
     2  H   -0.363849   0.054358
 Sum of Mulliken charges =  -0.00000   6.00000

 Dipole moment (field-independent basis, Debye):
    X=              0.0000    Y=              0.0000    Z=              0.9545  Tot=              0.9545
 Quadrupole moment (field-independent basis, Debye-Ang):
   XX=            -16.1095   YY=            -16.1095   ZZ=            -25.9896
   XY=              0.0000   XZ=              0.0000   YZ=              0.0000

 \\#P ROCCSD(T)=(maxcyc=150, Full, SaveAmplitudes, ReadAmplitudes)/Gen
 \PUHF=-103.7941132\PMP2-0=-104.3986525\CCSD=-104.4025853\CCSD(T)=-104.
 Normal termination of Gaussian 16 at Sat May  5 09:29:20 2018.
