 Gaussian 16, Revision A.03,
 Gaussian 16:  ES64L-G16RevA.03 25-Dec-2016

 ----------------------------------------------------------------------
 #P ROCCSD(T)=(maxcyc=150, Window=(7,0), SaveAmplitudes, ReadAmplitudes
 )/Gen 5d 7f SCF=(maxcycles=300) Integral(NoXCTest, DKHSO) MaxDisk=500G
 B Pop=Regular Guess=Read
 ----------------------------------------------------------------------

 ---
 CrO
 ---
 Symbolic Z-matrix:
 Charge =  0 Multiplicity = 5

                         Standard orientation:
 ---------------------------------------------------------------------
 Center     Atomic      Atomic             Coordinates (Angstroms)
 Number     Number       Type             X           Y           Z
 ---------------------------------------------------------------------
      1         24           0        0.000000    0.000000    0.325000
      2          8           0        0.000000    0.000000   -0.975000
 ---------------------------------------------------------------------

 SCF Done:  E(ROHF) =  -1124.38928456     A.U. after   24 cycles
 E2 =    -0.9044654434D+00 EUMP2 =    -0.11252937500015D+04
 CCSD(T)
 CCSD(T)= -0.11252960810D+04

 Unable to determine electronic state:  an orbital has unidentified symmetry.
 Alpha  occ. eigenvalues -- -222.22228 -26.81521 -22.44919 -22.44802 -22.44383
 Alpha  occ. eigenvalues --  -20.57341  -3.67264  -2.42819  -2.42799  -2.39160
 Alpha  occ. eigenvalues --   -1.23826  -0.68857  -0.59971  -0.59591  -0.51261
 Alpha  occ. eigenvalues --   -0.50893  -0.35150  -0.27169
 Alpha virt. eigenvalues --    0.01291   0.01965   0.02290   0.02636   0.04760
 Alpha virt. eigenvalues --    0.05020   0.05419   0.05420   0.05520   0.05688
 Alpha virt. eigenvalues --    0.07614   0.08073   0.10347   0.13870   0.14760

 Mulliken charges and spin densities:
               1          2
     1  Cr   0.840783   3.850519
     2  O   -0.840783   0.149481
 Sum of Mulliken charges =  -0.00000   4.00000

 Dipole moment (field-independent basis, Debye):
    X=             -0.0000    Y=             -0.0000    Z=              1.7308  Tot=              1.7308
 Quadrupole moment (field-independent basis, Debye-Ang):
   XX=            -21.8659   YY=            -20.1432   ZZ=            -24.0148
   XY=             -0.0000   XZ=             -0.0000   YZ=             -0.0000

 1\1\GINC-C484-052\SP\ROCCSD(T)-RW\Gen\Cr1O1(5)\AANNABE\14-Mar-2018\0\\
 #P ROCCSD(T)=(maxcyc=150, Window=(7,0), SaveAmplitudes, ReadAmplitudes
 )/Gen 5d 7f SCF=(maxcycles=300) Integral(NoXCTest, DKHSO) MaxDisk=500G
 B Pop=Regular Guess=Read\\CrO\\0,5\Cr,0,0.,0.,0.\O,0,0.,0.,1.3\\Versio
 n=ES64L-G16RevA.03\HF=-1124.3892846\MP2=-1125.29375\PUHF=-1124.3892846
 \PMP2-0=-1125.29375\CCSD=-1125.2538146\CCSD(T)=-1125.296081\RMSD=7.290
 e-09\PG=C*V [C*(O1Cr1)]\\@

 Normal termination of Gaussian 16 at Wed Mar 14 15:21:37 2018.
