 Gaussian 16, Revision A.03,
 Gaussian 16:  ES64L-G16RevA.03 25-Dec-2016

 ----------------------------------------------------------------------
 #P ROCCSD(T)=(MaxCyc=150, Full)/Gen SCF=(maxcycle=400) Integral(DKHSO,
  NoXCTest) Pop=Regular MaxDisk=500GB Guess=Read IOp(5/15=2)
 ----------------------------------------------------------------------

 ---
 FeH
 ---
 Symbolic Z-matrix:
 Charge =  0 Multiplicity = 4

                         Standard orientation:
 ---------------------------------------------------------------------
 Center     Atomic      Atomic             Coordinates (Angstroms)
 Number     Number       Type             X           Y           Z
 ---------------------------------------------------------------------
      1         26           0        0.000000    0.000000    0.044444
      2          1           0        0.000000    0.000000   -1.155556
 ---------------------------------------------------------------------

 SCF Done:  E(ROHF) =  -1271.76851055     A.U. after   26 cycles
 E2 =    -0.1227403789D+01 EUMP2 =    -0.12729959143400D+04
 CCSD(T)
 CCSD(T)= -0.12729726580D+04

 Unable to determine electronic state:  partially filled degenerate orbitals.
 Alpha  occ. eigenvalues -- -263.57795 -32.36271 -27.43278 -27.42695 -27.42695
 Alpha  occ. eigenvalues --   -4.26093  -2.82127  -2.79519  -2.79519  -0.55419
 Alpha  occ. eigenvalues --   -0.55419  -0.54934  -0.52860  -0.47968  -0.30422
 Alpha virt. eigenvalues --    0.00475   0.02254   0.02254   0.02590   0.04626
 Alpha virt. eigenvalues --    0.06267   0.06799   0.06799   0.06862   0.06873
 Alpha virt. eigenvalues --    0.07444   0.07444   0.09218   0.17173   0.18205

 Mulliken charges and spin densities:
               1          2
     1  Fe   0.298343   2.991240
     2  H   -0.298343   0.008760
 Sum of Mulliken charges =  -0.00000   3.00000

 Dipole moment (field-independent basis, Debye):
    X=              0.0000    Y=              0.0000    Z=              3.0015  Tot=              3.0015
 Quadrupole moment (field-independent basis, Debye-Ang):
   XX=            -17.0023   YY=            -17.0023   ZZ=            -16.1745
   XY=             -0.0000   XZ=              0.0000   YZ=              0.0000

 \\#P ROCCSD(T)=(MaxCyc=150, Full)/Gen SCF=(maxcycle=400) Integral(DKHS
 .9959143\MP4SDQ=-1272.9542998\CCSD=-1272.9406423\CCSD(T)=-1272.972658\
 Normal termination of Gaussian 16 at Wed Mar  7 15:35:37 2018.
