 Gaussian 16, Revision A.03,
 Gaussian 16:  ES64L-G16RevA.03 25-Dec-2016

 ----------------------------------------------------------------------
 #P ROCCSD(T)=(MaxCyc=150, Full)/Gen SCF=(maxcycle=400) Integral(DKHSO,
  NoXCTest) Pop=Regular MaxDisk=500GB Guess=Read IOp(5/15=2)
 ----------------------------------------------------------------------

 ---
 FeH
 ---
 Symbolic Z-matrix:
 Charge =  0 Multiplicity = 4

                         Standard orientation:
 ---------------------------------------------------------------------
 Center     Atomic      Atomic             Coordinates (Angstroms)
 Number     Number       Type             X           Y           Z
 ---------------------------------------------------------------------
      1         26           0        0.000000    0.000000    0.044444
      2          1           0        0.000000    0.000000   -1.155556
 ---------------------------------------------------------------------

 SCF Done:  E(ROHF) =  -1271.76674548     A.U. after   31 cycles
 E2 =    -0.1177182385D+01 EUMP2 =    -0.12729439278633D+04
 CCSD(T)
 CCSD(T)= -0.12729223117D+04

 Unable to determine electronic state:  an orbital has unidentified symmetry.
 Alpha  occ. eigenvalues -- -263.57807 -32.36298 -27.43309 -27.42722 -27.42722
 Alpha  occ. eigenvalues --   -4.26110  -2.82145  -2.79533  -2.79533  -0.55420
 Alpha  occ. eigenvalues --   -0.55420  -0.54930  -0.52859  -0.47965  -0.30423
 Alpha virt. eigenvalues --    0.00508   0.02459   0.02459   0.02843   0.04770
 Alpha virt. eigenvalues --    0.08225   0.08225   0.09545   0.10245   0.10245
 Alpha virt. eigenvalues --    0.10335   0.10369   0.10549   0.16479   0.25139

 Mulliken charges and spin densities:
               1          2
     1  Fe   0.319889   2.991080
     2  H   -0.319889   0.008920
 Sum of Mulliken charges =  -0.00000   3.00000

 Dipole moment (field-independent basis, Debye):
    X=              0.0000    Y=              0.0000    Z=              3.0036  Tot=              3.0036
 Quadrupole moment (field-independent basis, Debye-Ang):
   XX=            -17.0107   YY=            -17.0107   ZZ=            -16.1715
   XY=              0.0000   XZ=              0.0000   YZ=              0.0000

 \\#P ROCCSD(T)=(MaxCyc=150, Full)/Gen SCF=(maxcycle=400) Integral(DKHS
 9439279\MP4SDQ=-1272.9057765\CCSD=-1272.8917581\CCSD(T)=-1272.9223117\
 Normal termination of Gaussian 16 at Wed Mar  7 11:35:00 2018.
