 Gaussian 16, Revision A.03,
 Gaussian 16:  ES64L-G16RevA.03 25-Dec-2016

 ----------------------------------------------------------------------
 #P ROCCSD(T)=(maxcyc=150, Full, SaveAmplitudes, ReadAmplitudes)/Gen 5d
  7f SCF=(maxcycles=300) Integral(NoXCTest) MaxDisk=500GB Pop=Regular P
 seudo=Read Guess=Read
 ----------------------------------------------------------------------

 ---
 MnO
 ---
 Symbolic Z-matrix:
 Charge =  0 Multiplicity = 6

                         Standard orientation:
 ---------------------------------------------------------------------
 Center     Atomic      Atomic             Coordinates (Angstroms)
 Number     Number       Type             X           Y           Z
 ---------------------------------------------------------------------
      1         25           0        0.000000    0.000000    0.363636
      2          8           0        0.000000    0.000000   -1.136364
 ---------------------------------------------------------------------

 SCF Done:  E(ROHF) =  -119.139558878     A.U. after   22 cycles
 E2 =    -0.9660805897D+00 EUMP2 =    -0.12010563946798D+03
 CCSD(T)
 CCSD(T)= -0.12011801352D+03

 The electronic state is 6-SG.
 Alpha  occ. eigenvalues --   -4.15403  -2.80020  -2.80020  -2.77607  -1.19824
 Alpha  occ. eigenvalues --   -0.67967  -0.67967  -0.63723  -0.63723  -0.53367
 Alpha  occ. eigenvalues --   -0.38932  -0.38932  -0.33442
 Alpha virt. eigenvalues --   -0.00529   0.01759   0.01759   0.03088   0.03462
 Alpha virt. eigenvalues --    0.05894   0.05894   0.05905   0.05905   0.06233
 Alpha virt. eigenvalues --    0.07064   0.07064   0.11901   0.13553   0.17824

 Mulliken charges and spin densities:
               1          2
     1  Mn   1.126344   4.811799
     2  O   -1.126344   0.188201
 Sum of Mulliken charges =  -0.00000   5.00000

 Dipole moment (field-independent basis, Debye):
    X=              0.0000    Y=              0.0000    Z=              6.1401  Tot=              6.1401
 Quadrupole moment (field-independent basis, Debye-Ang):
   XX=            -19.3615   YY=            -19.3615   ZZ=            -22.8464
   XY=              0.0000   XZ=              0.0000   YZ=              0.0000

 \\#P ROCCSD(T)=(maxcyc=150, Full, SaveAmplitudes, ReadAmplitudes)/Gen
 9.1395589\PMP2-0=-120.1056395\CCSD=-120.0737867\CCSD(T)=-120.1180135\R
 Normal termination of Gaussian 16 at Sat Mar 10 08:04:15 2018.
