 Gaussian 16, Revision A.03,
 Gaussian 16:  ES64L-G16RevA.03 25-Dec-2016

 ----------------------------------------------------------------------
 #P ROCCSD(T)=(MaxCyc=150, Full)/Gen SCF=(maxcycle=400, vshift=200) Pse
 udo=Read Integral(NoXCTest) Pop=Regular MaxDisk=500GB Guess=Read IOp(5
 /15=2)
 ----------------------------------------------------------------------

 ---
 ZnH
 ---
 Symbolic Z-matrix:
 Charge =  0 Multiplicity = 2

                         Standard orientation:
 ---------------------------------------------------------------------
 Center     Atomic      Atomic             Coordinates (Angstroms)
 Number     Number       Type             X           Y           Z
 ---------------------------------------------------------------------
      1         30           0        0.000000    0.000000    0.045161
      2          1           0        0.000000    0.000000   -1.354839
 ---------------------------------------------------------------------

 SCF Done:  E(ROHF) =  -225.790758403     A.U. after   26 cycles
 E2 =    -0.1036435341D+01 EUMP2 =    -0.22682719374374D+03
 CCSD(T)
 CCSD(T)= -0.22677676682D+03

 The electronic state is 2-SG.
 Alpha  occ. eigenvalues --   -5.87841  -3.95764  -3.95679  -3.95679  -0.80748
 Alpha  occ. eigenvalues --   -0.79994  -0.79994  -0.79626  -0.79626  -0.47628
 Alpha  occ. eigenvalues --   -0.27226
 Alpha virt. eigenvalues --    0.02131   0.02131   0.02765   0.04039   0.07750
 Alpha virt. eigenvalues --    0.07750   0.08899   0.15855   0.18924   0.24377
 Alpha virt. eigenvalues --    0.24377   0.25082   0.25082   0.26077   0.29049

 Mulliken charges and spin densities:
               1          2
     1  Zn   0.308189   0.949955
     2  H   -0.308189   0.050045
 Sum of Mulliken charges =  -0.00000   1.00000

 Dipole moment (field-independent basis, Debye):
    X=              0.0000    Y=              0.0000    Z=              0.2135  Tot=              0.2135
 Quadrupole moment (field-independent basis, Debye-Ang):
   XX=            -14.4981   YY=            -14.4981   ZZ=            -20.7587
   XY=              0.0000   XZ=              0.0000   YZ=              0.0000

 \\#P ROCCSD(T)=(MaxCyc=150, Full)/Gen SCF=(maxcycle=400, vshift=200) P
 CCSD(T)=-226.7767668\RMSD=8.405e-09\PG=C*V [C*(H1Zn1)]\\@
 Normal termination of Gaussian 16 at Sat Apr 21 10:59:21 2018.
