 Gaussian 16, Revision A.03,
 Gaussian 16:  ES64L-G16RevA.03 25-Dec-2016

 ----------------------------------------------------------------------
 #P ROCCSD(T)=(MaxCyc=150, Full)/Gen SCF=(maxcycle=400, vshift=200) Pse
 udo=Read Integral(NoXCTest) Pop=Regular MaxDisk=500GB Guess=Read IOp(5
 /15=2)
 ----------------------------------------------------------------------

 ---
 ZnH
 ---
 Symbolic Z-matrix:
 Charge =  0 Multiplicity = 2

                         Standard orientation:
 ---------------------------------------------------------------------
 Center     Atomic      Atomic             Coordinates (Angstroms)
 Number     Number       Type             X           Y           Z
 ---------------------------------------------------------------------
      1         30           0        0.000000    0.000000    0.045161
      2          1           0        0.000000    0.000000   -1.354839
 ---------------------------------------------------------------------

 SCF Done:  E(ROHF) =  -225.791866801     A.U. after   20 cycles
 E2 =    -0.1117872596D+01 EUMP2 =    -0.22690973939725D+03
 CCSD(T)
 CCSD(T)= -0.22685646363D+03

 The electronic state is 2-SG.
 Alpha  occ. eigenvalues --   -5.87831  -3.95752  -3.95664  -3.95664  -0.80743
 Alpha  occ. eigenvalues --   -0.79988  -0.79988  -0.79622  -0.79622  -0.47626
 Alpha  occ. eigenvalues --   -0.27228
 Alpha virt. eigenvalues --    0.01942   0.01942   0.02255   0.03332   0.06371
 Alpha virt. eigenvalues --    0.06371   0.06883   0.11863   0.13927   0.15333
 Alpha virt. eigenvalues --    0.15333   0.15498   0.15498   0.18725   0.20810

 Mulliken charges and spin densities:
               1          2
     1  Zn   0.264876   0.935552
     2  H   -0.264876   0.064448
 Sum of Mulliken charges =  -0.00000   1.00000

 Dipole moment (field-independent basis, Debye):
    X=              0.0000    Y=              0.0000    Z=              0.2144  Tot=              0.2144
 Quadrupole moment (field-independent basis, Debye-Ang):
   XX=            -14.4926   YY=            -14.4926   ZZ=            -20.7599
   XY=              0.0000   XZ=              0.0000   YZ=              0.0000

 \\#P ROCCSD(T)=(MaxCyc=150, Full)/Gen SCF=(maxcycle=400, vshift=200) P
 CCSD(T)=-226.8564636\RMSD=2.845e-09\PG=C*V [C*(H1Zn1)]\\@
 Normal termination of Gaussian 16 at Mon Apr 30 08:40:14 2018.
