 Gaussian 16, Revision A.03,
 Gaussian 16:  ES64L-G16RevA.03 25-Dec-2016

 ----------------------------------------------------------------------
 #P ROCCSD(T)=(MaxCyc=150, Full)/Gen SCF=(maxcycle=400, vshift=200) Pse
 udo=Read Integral(NoXCTest) Pop=Regular MaxDisk=500GB Guess=Read IOp(5
 /15=2)
 ----------------------------------------------------------------------

 ---
 ZnH
 ---
 Symbolic Z-matrix:
 Charge =  0 Multiplicity = 2

                         Standard orientation:
 ---------------------------------------------------------------------
 Center     Atomic      Atomic             Coordinates (Angstroms)
 Number     Number       Type             X           Y           Z
 ---------------------------------------------------------------------
      1         30           0        0.000000    0.000000    0.045161
      2          1           0        0.000000    0.000000   -1.354839
 ---------------------------------------------------------------------

 SCF Done:  E(ROHF) =  -225.791750258     A.U. after   17 cycles
 E2 =    -0.1091377859D+01 EUMP2 =    -0.22688312811699D+03
 CCSD(T)
 CCSD(T)= -0.22683182491D+03

 The electronic state is 2-SG.
 Alpha  occ. eigenvalues --   -5.87832  -3.95753  -3.95666  -3.95666  -0.80745
 Alpha  occ. eigenvalues --   -0.79989  -0.79989  -0.79623  -0.79623  -0.47625
 Alpha  occ. eigenvalues --   -0.27227
 Alpha virt. eigenvalues --    0.02005   0.02005   0.02614   0.03686   0.06793
 Alpha virt. eigenvalues --    0.06793   0.07933   0.14286   0.17534   0.17884
 Alpha virt. eigenvalues --    0.17884   0.18173   0.18173   0.21512   0.23303

 Mulliken charges and spin densities:
               1          2
     1  Zn   0.283671   0.936754
     2  H   -0.283671   0.063246
 Sum of Mulliken charges =  -0.00000   1.00000

 Dipole moment (field-independent basis, Debye):
    X=              0.0000    Y=              0.0000    Z=              0.2144  Tot=              0.2144
 Quadrupole moment (field-independent basis, Debye-Ang):
   XX=            -14.4939   YY=            -14.4939   ZZ=            -20.7609
   XY=              0.0000   XZ=              0.0000   YZ=              0.0000

 \\#P ROCCSD(T)=(MaxCyc=150, Full)/Gen SCF=(maxcycle=400, vshift=200) P
 CCSD(T)=-226.8318249\RMSD=8.225e-09\PG=C*V [C*(H1Zn1)]\\@
 Normal termination of Gaussian 16 at Sat Apr 21 11:53:26 2018.
