 Gaussian 16, Revision A.03,
 Gaussian 16:  ES64L-G16RevA.03 25-Dec-2016

 ----------------------------------------------------------------------
 #P ROCCSD(T)=(maxcyc=150, Full, SaveAmplitudes, ReadAmplitudes)/Gen 5d
  7f SCF=(maxcycles=300, VShift=400) Integral(NoXCTest) MaxDisk=500GB P
 op=Full Pseudo=Read Guess=Read IOp(5/15=2)
 ----------------------------------------------------------------------

 ---
 MnH
 ---
 Symbolic Z-matrix:
 Charge =  0 Multiplicity = 7

                         Standard orientation:
 ---------------------------------------------------------------------
 Center     Atomic      Atomic             Coordinates (Angstroms)
 Number     Number       Type             X           Y           Z
 ---------------------------------------------------------------------
      1         25           0        0.000000    0.000000    0.069231
      2          1           0        0.000000    0.000000   -1.730769
 ---------------------------------------------------------------------

 SCF Done:  E(ROHF) =  -104.255426428     A.U. after   30 cycles
 E2 =    -0.5737953483D+00 EUMP2 =    -0.10482922177587D+03
 CCSD(T)
 CCSD(T)= -0.10485200329D+03

 The electronic state is 7-SG.
 Alpha  occ. eigenvalues --   -4.14618  -2.77436  -2.77436  -2.77221  -0.65790
 Alpha  occ. eigenvalues --   -0.65790  -0.65308  -0.65107  -0.65107  -0.40122
 Alpha  occ. eigenvalues --   -0.26378
 Alpha virt. eigenvalues --    0.01187   0.01187   0.02340   0.03118   0.05675
 Alpha virt. eigenvalues --    0.05675   0.08188   0.08437   0.08437   0.08919
 Alpha virt. eigenvalues --    0.08919   0.09972   0.13751   0.19181   0.22619

 Mulliken charges and spin densities:
               1          2
     1  Mn   0.431375   5.957949
     2  H   -0.431375   0.042051
 Sum of Mulliken charges =  -0.00000   6.00000

 Dipole moment (field-independent basis, Debye):
    X=              0.0000    Y=              0.0000    Z=              1.6733  Tot=              1.6733
 Quadrupole moment (field-independent basis, Debye-Ang):
   XX=            -16.2017   YY=            -16.2017   ZZ=            -26.8109
   XY=              0.0000   XZ=              0.0000   YZ=              0.0000

 \\#P ROCCSD(T)=(maxcyc=150, Full, SaveAmplitudes, ReadAmplitudes)/Gen
 4SDQ=-104.8355974\CCSD=-104.8364091\CCSD(T)=-104.8520033\RMSD=7.483e-0
 Normal termination of Gaussian 16 at Wed Apr  4 04:28:03 2018.
