 Gaussian 16, Revision A.03,
 Gaussian 16:  ES64L-G16RevA.03 25-Dec-2016

 ----------------------------------------------------------------------
 #P ROCCSD(T)=(maxcyc=150, FrzINGC)/Gen 5d 7f SCF=(maxcycles=300) Integ
 ral(NoXCTest, DKHSO) MaxDisk=500GB Pop=Regular IOp(5/15=2) Guess=Read
 ----------------------------------------------------------------------

 ---
 ScH
 ---
 Symbolic Z-matrix:
 Charge =  0 Multiplicity = 1

                         Standard orientation:
 ---------------------------------------------------------------------
 Center     Atomic      Atomic             Coordinates (Angstroms)
 Number     Number       Type             X           Y           Z
 ---------------------------------------------------------------------
      1         21           0        0.000000    0.000000    0.072727
      2          1           0        0.000000    0.000000   -1.527273
 ---------------------------------------------------------------------

 SCF Done:  E(ROHF) =  -763.825969834     A.U. after    8 cycles
 E2 =    -0.4039511702D+00 EUMP2 =    -0.76422992100385D+03
 CCSD(T)
 CCSD(T)= -0.76426893509D+03

 The electronic state is 1-SG.
 Alpha  occ. eigenvalues -- -166.89682 -19.35040 -15.77377 -15.77377 -15.76653
 Alpha  occ. eigenvalues --   -2.66539  -1.64626  -1.64163  -1.64163  -0.43066
 Alpha  occ. eigenvalues --   -0.22600
 Alpha virt. eigenvalues --    0.01183   0.01183   0.01531   0.01664   0.02610
 Alpha virt. eigenvalues --    0.02610   0.02639   0.02639   0.02666   0.04129
 Alpha virt. eigenvalues --    0.04153   0.04153   0.06970   0.07157   0.07157

 Mulliken charges and spin densities:
               1          2
     1  Sc   0.384269   0.000000
     2  H   -0.384269   0.000000
 Sum of Mulliken charges =  -0.00000   0.00000

 Dipole moment (field-independent basis, Debye):
    X=              0.0000    Y=              0.0000    Z=              0.8932  Tot=              0.8932
 Quadrupole moment (field-independent basis, Debye-Ang):
   XX=            -23.6506   YY=            -23.6506   ZZ=            -25.8888
   XY=              0.0000   XZ=              0.0000   YZ=             -0.0000

  ROCCSD(T)=(maxcyc=150, FrzINGC)/Gen 5d 7f SCF=(maxcycles=300) Integra
 MP2-0=-764.229921\MP4SDQ=-764.251159\CCSD=-764.2514949\CCSD(T)=-764.26
 Normal termination of Gaussian 16 at Tue Feb 13 18:32:46 2018.
