 Gaussian 16, Revision A.03,
 Gaussian 16:  ES64L-G16RevA.03 25-Dec-2016

 ----------------------------------------------------------------------
 #P ROCCSD(T)=(MaxCyc=150, Full)/Gen SCF=(maxcycle=400, vshift=200) Pse
 udo=Read Integral(NoXCTest) Pop=Regular MaxDisk=500GB Guess=Read IOp(5
 /15=2)
 ----------------------------------------------------------------------

 ---
 CoO
 ---
 Symbolic Z-matrix:
 Charge =  0 Multiplicity = 4

                         Standard orientation:
 ---------------------------------------------------------------------
 Center     Atomic      Atomic             Coordinates (Angstroms)
 Number     Number       Type             X           Y           Z
 ---------------------------------------------------------------------
      1         27           0        0.000000    0.000000    0.297143
      2          8           0        0.000000    0.000000   -1.002857
 ---------------------------------------------------------------------

 SCF Done:  E(ROHF) =  -159.824019762     A.U. after   21 cycles
 E2 =    -0.1188768369D+01 EUMP2 =    -0.16101278813151D+03
 CCSD(T)
 CCSD(T)= -0.16099681936D+03

 Unable to determine electronic state:  partially filled degenerate orbitals.
 Alpha  occ. eigenvalues --   -4.87711  -3.31554  -3.27535  -3.27535  -1.32423
 Alpha  occ. eigenvalues --   -0.85011  -0.85011  -0.76846  -0.71870  -0.70930
 Alpha  occ. eigenvalues --   -0.47400  -0.47400  -0.34318
 Alpha virt. eigenvalues --   -0.00154   0.02553   0.02553   0.03359   0.04036
 Alpha virt. eigenvalues --    0.07095   0.07095   0.07207   0.07358   0.07366
 Alpha virt. eigenvalues --    0.09104   0.09104   0.11993   0.16327   0.21657

 Mulliken charges and spin densities:
               1          2
     1  Co   0.758132   2.702685
     2  O   -0.758132   0.297315
 Sum of Mulliken charges =  -0.00000   3.00000

 Dipole moment (field-independent basis, Debye):
    X=              0.0000    Y=              0.0000    Z=              3.7605  Tot=              3.7605
 Quadrupole moment (field-independent basis, Debye-Ang):
   XX=            -19.7363   YY=            -19.7363   ZZ=            -20.0952
   XY=              0.0000   XZ=              0.0000   YZ=              0.0000

 \\#P ROCCSD(T)=(MaxCyc=150, Full)/Gen SCF=(maxcycle=400, vshift=200) P
 MP2-0=-161.0127881\MP4SDQ=-160.970269\CCSD=-160.9442496\CCSD(T)=-160.9
 Normal termination of Gaussian 16 at Thu May  3 17:19:25 2018.
