 Gaussian 16, Revision A.03,
 Gaussian 16:  ES64L-G16RevA.03 25-Dec-2016

 ----------------------------------------------------------------------
 #P ROCCSD(T)=(MaxCyc=150, Full)/Gen SCF=(maxcycle=400, vshift=200) Pse
 udo=Read Integral(NoXCTest) Pop=Regular MaxDisk=500GB Guess=Read IOp(5
 /15=2)
 ----------------------------------------------------------------------

 ---
 CoO
 ---
 Symbolic Z-matrix:
 Charge =  0 Multiplicity = 4

                         Standard orientation:
 ---------------------------------------------------------------------
 Center     Atomic      Atomic             Coordinates (Angstroms)
 Number     Number       Type             X           Y           Z
 ---------------------------------------------------------------------
      1         27           0        0.000000    0.000000    0.297143
      2          8           0        0.000000    0.000000   -1.002857
 ---------------------------------------------------------------------

 SCF Done:  E(ROHF) =  -159.820001889     A.U. after   27 cycles
 E2 =    -0.1136358846D+01 EUMP2 =    -0.16095636073496D+03
 CCSD(T)
 CCSD(T)= -0.16094268950D+03

 Unable to determine electronic state:  partially filled degenerate orbitals.
 Alpha  occ. eigenvalues --   -4.87726  -3.31584  -3.27550  -3.27550  -1.32469
 Alpha  occ. eigenvalues --   -0.84999  -0.84999  -0.76839  -0.71860  -0.70933
 Alpha  occ. eigenvalues --   -0.47383  -0.47383  -0.34337
 Alpha virt. eigenvalues --   -0.00136   0.02836   0.02836   0.03664   0.04303
 Alpha virt. eigenvalues --    0.09114   0.09114   0.10706   0.11261   0.11286
 Alpha virt. eigenvalues --    0.11567   0.11567   0.13576   0.17452   0.25849

 Mulliken charges and spin densities:
               1          2
     1  Co   0.786788   2.698300
     2  O   -0.786788   0.301700
 Sum of Mulliken charges =  -0.00000   3.00000

 Dipole moment (field-independent basis, Debye):
    X=              0.0000    Y=              0.0000    Z=              3.7735  Tot=              3.7735
 Quadrupole moment (field-independent basis, Debye-Ang):
   XX=            -19.7344   YY=            -19.7344   ZZ=            -20.1097
   XY=              0.0000   XZ=              0.0000   YZ=              0.0000

 \\#P ROCCSD(T)=(MaxCyc=150, Full)/Gen SCF=(maxcycle=400, vshift=200) P
 \PMP2-0=-160.9563607\MP4SDQ=-160.9192004\CCSD=-160.8924138\CCSD(T)=-16
 Normal termination of Gaussian 16 at Thu May  3 15:13:30 2018.
