 Gaussian 16, Revision A.03,
 Gaussian 16:  ES64L-G16RevA.03 25-Dec-2016

 ----------------------------------------------------------------------
 #P ROCCSD(T)=(maxcyc=150, Full, SaveAmplitudes, ReadAmplitudes)/Gen 5d
  7f SCF=(maxcycles=300) Integral(NoXCTest) MaxDisk=500GB Pop=Regular P
 seudo=Read Guess=Read IOp(5/15=2)
 ----------------------------------------------------------------------

 ---
 CrO
 ---
 Symbolic Z-matrix:
 Charge =  0 Multiplicity = 5

                         Standard orientation:
 ---------------------------------------------------------------------
 Center     Atomic      Atomic             Coordinates (Angstroms)
 Number     Number       Type             X           Y           Z
 ---------------------------------------------------------------------
      1         24           0        0.000000    0.000000    0.475000
      2          8           0        0.000000    0.000000   -1.425000
 ---------------------------------------------------------------------

 SCF Done:  E(ROHF) =  -101.852861600     A.U. after   62 cycles
 E2 =    -0.8448767398D+00 EUMP2 =    -0.10269773834014D+03
 CCSD(T)
 CCSD(T)= -0.10275494602D+03

 Unable to determine electronic state:  an orbital has unidentified symmetry.
 Alpha  occ. eigenvalues --   -3.78600  -2.53680  -2.48627  -2.47857  -1.08642
 Alpha  occ. eigenvalues --   -0.59176  -0.56871  -0.56707  -0.54034  -0.33264
 Alpha  occ. eigenvalues --   -0.32762  -0.31862
 Alpha virt. eigenvalues --   -0.05273   0.00522   0.01181   0.01554   0.03697
 Alpha virt. eigenvalues --    0.04779   0.05971   0.07329   0.07333   0.07622
 Alpha virt. eigenvalues --    0.08319   0.08577   0.12636   0.12677   0.15507

 Mulliken charges and spin densities:
               1          2
     1  Cr   1.132381   3.966171
     2  O   -1.132381   0.033829
 Sum of Mulliken charges =  -0.00000   4.00000

 Dipole moment (field-independent basis, Debye):
    X=              0.0000    Y=              0.0000    Z=             10.1749  Tot=             10.1749
 Quadrupole moment (field-independent basis, Debye-Ang):
   XX=            -19.7617   YY=            -19.0747   ZZ=            -24.9545
   XY=              0.0000   XZ=              0.0000   YZ=              0.0000

 \\#P ROCCSD(T)=(maxcyc=150, Full, SaveAmplitudes, ReadAmplitudes)/Gen
 SD=-102.7007831\CCSD(T)=-102.754946\RMSD=9.586e-09\PG=C*V [C*(O1Cr1)]\
 Normal termination of Gaussian 16 at Tue Mar 13 18:23:00 2018.
