 Gaussian 16, Revision A.03,
 Gaussian 16:  ES64L-G16RevA.03 25-Dec-2016

 ----------------------------------------------------------------------
 #P ROCCSD(T)=(maxcyc=150, Full, SaveAmplitudes, ReadAmplitudes)/Gen 5d
  7f SCF=(maxcycles=300, VShift=400) Integral(NoXCTest) MaxDisk=500GB P
 op=Full Pseudo=Read Guess=Read IOp(5/15=2)
 ----------------------------------------------------------------------

 ---
 ScH
 ---
 Symbolic Z-matrix:
 Charge =  0 Multiplicity = 1

                         Standard orientation:
 ---------------------------------------------------------------------
 Center     Atomic      Atomic             Coordinates (Angstroms)
 Number     Number       Type             X           Y           Z
 ---------------------------------------------------------------------
      1         21           0        0.000000    0.000000    0.090909
      2          1           0        0.000000    0.000000   -1.909091
 ---------------------------------------------------------------------

 SCF Done:  E(ROHF) =  -46.6685293692     A.U. after   25 cycles
 E2 =    -0.4045550066D+00 EUMP2 =    -0.47073084375810D+02
 CCSD(T)
 CCSD(T)= -0.47120839444D+02

 The electronic state is 1-SG.
 Alpha  occ. eigenvalues --   -2.70256  -1.68680  -1.68680  -1.68484  -0.38010
 Alpha  occ. eigenvalues --   -0.23915
 Alpha virt. eigenvalues --    0.01010   0.01010   0.01327   0.02271   0.03579
 Alpha virt. eigenvalues --    0.03780   0.03780   0.03936   0.03936   0.04345
 Alpha virt. eigenvalues --    0.04345   0.04373   0.07481   0.07481   0.08511

 Mulliken charges and spin densities:
               1          2
     1  Sc   0.318967   0.000000
     2  H   -0.318967   0.000000
 Sum of Mulliken charges =  -0.00000   0.00000

 Dipole moment (field-independent basis, Debye):
    X=              0.0000    Y=              0.0000    Z=              2.1836  Tot=              2.1836
 Quadrupole moment (field-independent basis, Debye-Ang):
   XX=            -22.9513   YY=            -22.9513   ZZ=            -28.3862
   XY=              0.0000   XZ=              0.0000   YZ=              0.0000

 P ROCCSD(T)=(maxcyc=150, Full, SaveAmplitudes, ReadAmplitudes)/Gen 5d
 1017476\CCSD=-47.1018963\CCSD(T)=-47.1208394\RMSD=9.830e-09\PG=C*V [C*
 Normal termination of Gaussian 16 at Thu Apr 19 07:45:22 2018.
