 Gaussian 16, Revision A.03,
 Gaussian 16:  ES64L-G16RevA.03 25-Dec-2016

 ----------------------------------------------------------------------
 #P ROCCSD(T)=(maxcyc=150, Full, SaveAmplitudes, ReadAmplitudes)/Gen 5d
  7f SCF=(maxcycles=300, VShift=200) Integral(NoXCTest) MaxDisk=500GB P
 op=Regular Pseudo=Read Guess=Read
 ----------------------------------------------------------------------

 ---
 CrO
 ---
 Symbolic Z-matrix:
 Charge =  0 Multiplicity = 5

                         Standard orientation:
 ---------------------------------------------------------------------
 Center     Atomic      Atomic             Coordinates (Angstroms)
 Number     Number       Type             X           Y           Z
 ---------------------------------------------------------------------
      1         24           0        0.000000    0.000000    0.300000
      2          8           0        0.000000    0.000000   -0.900000
 ---------------------------------------------------------------------

 SCF Done:  E(ROHF) =  -101.540391536     A.U. after   27 cycles
 E2 =    -0.9204632579D+00 EUMP2 =    -0.10246085479411D+03
 CCSD(T)
 CCSD(T)= -0.10246502701D+03

 Unable to determine electronic state:  an orbital has unidentified symmetry.
 Alpha  occ. eigenvalues --   -3.73613  -2.51407  -2.46938  -2.43221  -1.26805
 Alpha  occ. eigenvalues --   -0.75055  -0.69089  -0.65613  -0.50374  -0.50285
 Alpha  occ. eigenvalues --   -0.30149  -0.26366
 Alpha virt. eigenvalues --    0.01394   0.02086   0.02567   0.02582   0.04847
 Alpha virt. eigenvalues --    0.05039   0.05467   0.05472   0.05510   0.05608
 Alpha virt. eigenvalues --    0.08649   0.08774   0.10281   0.13936   0.14977

 Mulliken charges and spin densities:
               1          2
     1  Cr   0.741491   3.833655
     2  O   -0.741491   0.166345
 Sum of Mulliken charges =  -0.00000   4.00000

 Dipole moment (field-independent basis, Debye):
    X=              0.0000    Y=              0.0000    Z=              0.2446  Tot=              0.2446
 Quadrupole moment (field-independent basis, Debye-Ang):
   XX=            -22.8659   YY=            -19.9624   ZZ=            -22.8223
   XY=              0.0000   XZ=              0.0000   YZ=              0.0000

 \\#P ROCCSD(T)=(maxcyc=150, Full, SaveAmplitudes, ReadAmplitudes)/Gen
 01.5403915\PMP2-0=-102.4608548\CCSD=-102.4244931\CCSD(T)=-102.465027\R
 Normal termination of Gaussian 16 at Thu Mar 15 17:44:22 2018.
