 Gaussian 16, Revision A.03,
 Gaussian 16:  ES64L-G16RevA.03 25-Dec-2016

 ----------------------------------------------------------------------
 #P ROCCSD(T)=(maxcyc=150, Full, SaveAmplitudes, ReadAmplitudes)/Gen 5d
  7f SCF=(maxcycles=300) Integral(NoXCTest) MaxDisk=500GB Pop=Regular P
 seudo=Read Guess=Read IOp(5/15=2)
 ----------------------------------------------------------------------

 ---
 ScO
 ---
 Symbolic Z-matrix:
 Charge =  0 Multiplicity = 2

                         Standard orientation:
 ---------------------------------------------------------------------
 Center     Atomic      Atomic             Coordinates (Angstroms)
 Number     Number       Type             X           Y           Z
 ---------------------------------------------------------------------
      1         21           0        0.000000    0.000000    0.468966
      2          8           0        0.000000    0.000000   -1.231034
 ---------------------------------------------------------------------

 SCF Done:  E(ROHF) =  -61.9645130410     A.U. after   16 cycles
 E2 =    -0.6842503116D+00 EUMP2 =    -0.62648763352668D+02
 CCSD(T)
 CCSD(T)= -0.62678841044D+02

 The electronic state is 2-SG.
 Alpha  occ. eigenvalues --   -2.66619  -1.66284  -1.63277  -1.63277  -1.12653
 Alpha  occ. eigenvalues --   -0.42760  -0.41139  -0.41139  -0.25265
 Alpha virt. eigenvalues --   -0.00034  -0.00034   0.01443   0.02236   0.03535
 Alpha virt. eigenvalues --    0.03535   0.03581   0.03581   0.04202   0.04202
 Alpha virt. eigenvalues --    0.04381   0.05441   0.08080   0.08080   0.10503

 Mulliken charges and spin densities:
               1          2
     1  Sc   1.254508   0.974902
     2  O   -1.254508   0.025098
 Sum of Mulliken charges =  -0.00000   1.00000

 Dipole moment (field-independent basis, Debye):
    X=              0.0000    Y=              0.0000    Z=              4.8557  Tot=              4.8557
 Quadrupole moment (field-independent basis, Debye-Ang):
   XX=            -21.8442   YY=            -21.8442   ZZ=            -32.5128
   XY=              0.0000   XZ=              0.0000   YZ=              0.0000

 \\#P ROCCSD(T)=(maxcyc=150, Full, SaveAmplitudes, ReadAmplitudes)/Gen
 \CCSD=-62.638001\CCSD(T)=-62.678841\RMSD=2.317e-09\PG=C*V [C*(O1Sc1)]\
 Normal termination of Gaussian 16 at Wed Mar  7 11:46:21 2018.
