 Gaussian 16, Revision A.03,
 Gaussian 16:  ES64L-G16RevA.03 25-Dec-2016

 ----------------------------------------------------------------------
 #P ROCCSD(T)=(MaxCyc=150, Full)/Gen SCF=(maxcycle=400, vshift=200) Pse
 udo=Read Integral(NoXCTest) Pop=Regular MaxDisk=500GB Guess=Read IOp(5
 /15=2)
 ----------------------------------------------------------------------

 ---
 CoH
 ---
 Symbolic Z-matrix:
 Charge =  0 Multiplicity = 3

                         Standard orientation:
 ---------------------------------------------------------------------
 Center     Atomic      Atomic             Coordinates (Angstroms)
 Number     Number       Type             X           Y           Z
 ---------------------------------------------------------------------
      1         27           0        0.000000    0.000000    0.053571
      2          1           0        0.000000    0.000000   -1.446429
 ---------------------------------------------------------------------

 SCF Done:  E(ROHF) =  -145.153501486     A.U. after   36 cycles
 E2 =    -0.9022095262D+00 EUMP2 =    -0.14605571101255D+03
 CCSD(T)
 CCSD(T)= -0.14603564280D+03

 Unable to determine electronic state:  partially filled degenerate orbitals.
 Alpha  occ. eigenvalues --   -4.53590  -2.98364  -2.98322  -2.98322  -0.49149
 Alpha  occ. eigenvalues --   -0.48862  -0.44193  -0.44005  -0.44005  -0.32752
 Alpha virt. eigenvalues --    0.00041   0.02431   0.02431   0.03013   0.04765
 Alpha virt. eigenvalues --    0.06992   0.07342   0.07356   0.07559   0.07559
 Alpha virt. eigenvalues --    0.08618   0.08618   0.10029   0.18574   0.20081

 Mulliken charges and spin densities:
               1          2
     1  Co   0.349448   1.992682
     2  H   -0.349448   0.007318
 Sum of Mulliken charges =  -0.00000   2.00000

 Dipole moment (field-independent basis, Debye):
    X=              0.0000    Y=              0.0000    Z=              4.2992  Tot=              4.2992
 Quadrupole moment (field-independent basis, Debye-Ang):
   XX=            -13.8917   YY=            -13.8917   ZZ=            -17.6603
   XY=              0.0000   XZ=              0.0000   YZ=              0.0000

 \\#P ROCCSD(T)=(MaxCyc=150, Full)/Gen SCF=(maxcycle=400, vshift=200) P
 PMP2-0=-146.055711\MP4SDQ=-146.0273812\CCSD=-146.0035856\CCSD(T)=-146.
 Normal termination of Gaussian 16 at Sat Apr 21 23:28:25 2018.
