 Gaussian 16, Revision A.03,
 Gaussian 16:  ES64L-G16RevA.03 25-Dec-2016

 ----------------------------------------------------------------------
 #P ROCCSD(T)=(MaxCyc=150, Full)/Gen SCF=(maxcycle=400, vshift=200) Pse
 udo=Read Integral(NoXCTest) Pop=Regular MaxDisk=500GB Guess=Read IOp(5
 /15=2)
 ----------------------------------------------------------------------

 ---
 CoH
 ---
 Symbolic Z-matrix:
 Charge =  0 Multiplicity = 3

                         Standard orientation:
 ---------------------------------------------------------------------
 Center     Atomic      Atomic             Coordinates (Angstroms)
 Number     Number       Type             X           Y           Z
 ---------------------------------------------------------------------
      1         27           0        0.000000    0.000000    0.053571
      2          1           0        0.000000    0.000000   -1.446429
 ---------------------------------------------------------------------

 SCF Done:  E(ROHF) =  -145.152316246     A.U. after    4 cycles
 E2 =    -0.8607164064D+00 EUMP2 =    -0.14601303265200D+03
 CCSD(T)
 CCSD(T)= -0.14599461163D+03

 Unable to determine electronic state:  partially filled degenerate orbitals.
 Alpha  occ. eigenvalues --   -4.53587  -2.98369  -2.98328  -2.98328  -0.49147
 Alpha  occ. eigenvalues --   -0.48861  -0.44189  -0.43998  -0.43998  -0.32752
 Alpha virt. eigenvalues --    0.00067   0.02682   0.02682   0.03321   0.05034
 Alpha virt. eigenvalues --    0.09423   0.09423   0.10211   0.11329   0.11372
 Alpha virt. eigenvalues --    0.11528   0.11558   0.11558   0.18941   0.25340

 Mulliken charges and spin densities:
               1          2
     1  Co   0.361864   1.978308
     2  H   -0.361864   0.021692
 Sum of Mulliken charges =   0.00000   2.00000

 Dipole moment (field-independent basis, Debye):
    X=              0.0000    Y=              0.0000    Z=              4.3033  Tot=              4.3033
 Quadrupole moment (field-independent basis, Debye-Ang):
   XX=            -13.9038   YY=            -13.9038   ZZ=            -17.6564
   XY=              0.0000   XZ=              0.0000   YZ=              0.0000

 \\#P ROCCSD(T)=(MaxCyc=150, Full)/Gen SCF=(maxcycle=400, vshift=200) P
 \PMP2-0=-146.0130327\MP4SDQ=-145.9884434\CCSD=-145.9641338\CCSD(T)=-14
 Normal termination of Gaussian 16 at Sat Apr 21 22:44:07 2018.
