 Gaussian 16, Revision A.03,
 Gaussian 16:  ES64L-G16RevA.03 25-Dec-2016

 ----------------------------------------------------------------------
 #P ROCCSD(T)=(MaxCyc=150, Full)/Gen SCF=(maxcycle=400, vshift=200) Pse
 udo=Read Integral(NoXCTest) Pop=Regular MaxDisk=500GB Guess=Read IOp(5
 /15=2)
 ----------------------------------------------------------------------

 ---
 CoH
 ---
 Symbolic Z-matrix:
 Charge =  0 Multiplicity = 3

                         Standard orientation:
 ---------------------------------------------------------------------
 Center     Atomic      Atomic             Coordinates (Angstroms)
 Number     Number       Type             X           Y           Z
 ---------------------------------------------------------------------
      1         27           0        0.000000    0.000000    0.053571
      2          1           0        0.000000    0.000000   -1.446429
 ---------------------------------------------------------------------

 SCF Done:  E(ROHF) =  -145.153714889     A.U. after   27 cycles
 E2 =    -0.9222245993D+00 EUMP2 =    -0.14607593948856D+03
 CCSD(T)
 CCSD(T)= -0.14605362078D+03

 Unable to determine electronic state:  partially filled degenerate orbitals.
 Alpha  occ. eigenvalues --   -4.53589  -2.98364  -2.98323  -2.98322  -0.49146
 Alpha  occ. eigenvalues --   -0.48859  -0.44197  -0.44011  -0.44011  -0.32752
 Alpha virt. eigenvalues --   -0.00011   0.02352   0.02352   0.02705   0.04114
 Alpha virt. eigenvalues --    0.06430   0.06635   0.06646   0.06883   0.06883
 Alpha virt. eigenvalues --    0.08222   0.08222   0.08743   0.14610   0.18512

 Mulliken charges and spin densities:
               1          2
     1  Co   0.331029   1.985732
     2  H   -0.331029   0.014268
 Sum of Mulliken charges =  -0.00000   2.00000

 Dipole moment (field-independent basis, Debye):
    X=              0.0000    Y=              0.0000    Z=              4.2987  Tot=              4.2987
 Quadrupole moment (field-independent basis, Debye-Ang):
   XX=            -13.8913   YY=            -13.8913   ZZ=            -17.6606
   XY=              0.0000   XZ=              0.0000   YZ=              0.0000

 \\#P ROCCSD(T)=(MaxCyc=150, Full)/Gen SCF=(maxcycle=400, vshift=200) P
 \PMP2-0=-146.0759395\MP4SDQ=-146.0444318\CCSD=-146.0209697\CCSD(T)=-14
 Normal termination of Gaussian 16 at Sat Apr 28 21:10:49 2018.
