 Gaussian 16, Revision A.03,
 Gaussian 16:  ES64L-G16RevA.03 25-Dec-2016

 ----------------------------------------------------------------------
 #P ROCCSD(T)=(maxcyc=150, Full)/Gen 5d 7f SCF=(maxcycles=300) Integral
 (NoXCTest, DKHSO) MaxDisk=500GB Pop=Regular IOp(5/15=2) Guess=Read
 ----------------------------------------------------------------------

 ---
 MnH
 ---
 Symbolic Z-matrix:
 Charge =  0 Multiplicity = 7

                         Standard orientation:
 ---------------------------------------------------------------------
 Center     Atomic      Atomic             Coordinates (Angstroms)
 Number     Number       Type             X           Y           Z
 ---------------------------------------------------------------------
      1         25           0        0.000000    0.000000    0.084615
      2          1           0        0.000000    0.000000   -2.115385
 ---------------------------------------------------------------------

 SCF Done:  E(ROHF) =  -1157.93019581     A.U. after   20 cycles
 E2 =    -0.9950873553D+00 EUMP2 =    -0.11589252831663D+04
 CCSD(T)
 CCSD(T)= -0.11589377836D+04

 The electronic state is 7-SG.
 Alpha  occ. eigenvalues -- -242.52541 -29.62695 -24.98146 -24.98146 -24.98102
 Alpha  occ. eigenvalues --   -4.11684  -2.77006  -2.77006  -2.76734  -0.66516
 Alpha  occ. eigenvalues --   -0.66516  -0.65877  -0.65877  -0.65734  -0.37402
 Alpha  occ. eigenvalues --   -0.27380
 Alpha virt. eigenvalues --    0.00746   0.00746   0.02039   0.02959   0.04686
 Alpha virt. eigenvalues --    0.04686   0.05494   0.05707   0.05707   0.06193
 Alpha virt. eigenvalues --    0.06193   0.09903   0.11315   0.13263   0.17890

 Mulliken charges and spin densities:
               1          2
     1  Mn   0.400779   5.948239
     2  H   -0.400779   0.051761
 Sum of Mulliken charges =  -0.00000   6.00000

 Dipole moment (field-independent basis, Debye):
    X=              0.0000    Y=              0.0000    Z=              3.2023  Tot=              3.2023
 Quadrupole moment (field-independent basis, Debye-Ang):
   XX=            -16.9542   YY=            -16.9542   ZZ=            -29.8230
   XY=              0.0000   XZ=              0.0000   YZ=              0.0000

 \\#P ROCCSD(T)=(maxcyc=150, Full)/Gen 5d 7f SCF=(maxcycles=300) Integr
 Normal termination of Gaussian 16 at Wed Feb 14 23:38:18 2018.
