 Gaussian 16, Revision A.03,
 Gaussian 16:  ES64L-G16RevA.03 25-Dec-2016

 ----------------------------------------------------------------------
 #P ROCCSD(T)=(maxcyc=100, Full)/Gen SCF=(maxcycle=400, symm) Pseudo=Re
 ad Integral(NoXCTest) Pop=Regular MaxDisk=500GB Guess=Permute IOp(5/15
 =2)
 ----------------------------------------------------------------------

 ---
 FeH
 ---
 Symbolic Z-matrix:
 Charge =  0 Multiplicity = 4

                         Standard orientation:
 ---------------------------------------------------------------------
 Center     Atomic      Atomic             Coordinates (Angstroms)
 Number     Number       Type             X           Y           Z
 ---------------------------------------------------------------------
      1         26           0        0.000000    0.000000    0.066667
      2          1           0        0.000000    0.000000   -1.733333
 ---------------------------------------------------------------------

 SCF Done:  E(ROHF) =  -123.584089998     A.U. after   39 cycles
 E2 =    -0.7999779748D+00 EUMP2 =    -0.12438406797252D+03
 CCSD(T)
 CCSD(T)= -0.12439401434D+03

 Unable to determine electronic state:  an orbital has unidentified symmetry.
 Alpha  occ. eigenvalues --   -4.16638  -2.74917  -2.74596  -2.74596  -0.48746
 Alpha  occ. eigenvalues --   -0.48746  -0.48449  -0.43331  -0.42530  -0.31782
 Alpha virt. eigenvalues --   -0.00906   0.02119   0.02119   0.03090   0.03556
 Alpha virt. eigenvalues --    0.06213   0.06714   0.06729   0.06867   0.06867
 Alpha virt. eigenvalues --    0.07655   0.07655   0.10171   0.15684   0.17708

 Mulliken charges and spin densities:
               1          2
     1  Fe   0.351598   2.998262
     2  H   -0.351598   0.001738
 Sum of Mulliken charges =  -0.00000   3.00000

 Dipole moment (field-independent basis, Debye):
    X=              0.0000    Y=              0.0000    Z=              4.9970  Tot=              4.9970
 Quadrupole moment (field-independent basis, Debye-Ang):
   XX=            -15.2792   YY=            -15.2792   ZZ=            -18.9371
   XY=              0.0000   XZ=              0.0000   YZ=              0.0000

 \\#P ROCCSD(T)=(maxcyc=100, Full)/Gen SCF=(maxcycle=400, symm) Pseudo=
 4\CCSD(T)=-124.3940143\RMSD=2.824e-09\PG=C*V [C*(H1Fe1)]\\@
 Normal termination of Gaussian 16 at Mon Feb 12 21:02:37 2018.
