 Gaussian 16, Revision A.03,
 Gaussian 16:  ES64L-G16RevA.03 25-Dec-2016

 ----------------------------------------------------------------------
 #P ROCCSD(T)=(maxcyc=100, Full)/Gen SCF=(maxcycle=400, symm) Pseudo=Re
 ad Integral(NoXCTest) Pop=Regular MaxDisk=500GB Guess=Permute IOp(5/15
 =2)
 ----------------------------------------------------------------------

 ---
 FeH
 ---
 Symbolic Z-matrix:
 Charge =  0 Multiplicity = 4

                         Standard orientation:
 ---------------------------------------------------------------------
 Center     Atomic      Atomic             Coordinates (Angstroms)
 Number     Number       Type             X           Y           Z
 ---------------------------------------------------------------------
      1         26           0        0.000000    0.000000    0.066667
      2          1           0        0.000000    0.000000   -1.733333
 ---------------------------------------------------------------------

 SCF Done:  E(ROHF) =  -123.582983008     A.U. after   24 cycles
 E2 =    -0.7643298176D+00 EUMP2 =    -0.12434731282598D+03
 CCSD(T)
 CCSD(T)= -0.12435926698D+03

 Unable to determine electronic state:  an orbital has unidentified symmetry.
 Alpha  occ. eigenvalues --   -4.16686  -2.74935  -2.74612  -2.74612  -0.48739
 Alpha  occ. eigenvalues --   -0.48739  -0.48440  -0.43322  -0.42516  -0.31780
 Alpha virt. eigenvalues --   -0.00897   0.02357   0.02357   0.03375   0.03834
 Alpha virt. eigenvalues --    0.08342   0.08342   0.09470   0.10105   0.10147
 Alpha virt. eigenvalues --    0.10368   0.10368   0.11018   0.16998   0.22767

 Mulliken charges and spin densities:
               1          2
     1  Fe   0.427300   2.998362
     2  H   -0.427300   0.001638
 Sum of Mulliken charges =  -0.00000   3.00000

 Dipole moment (field-independent basis, Debye):
    X=              0.0000    Y=              0.0000    Z=              5.0015  Tot=              5.0015
 Quadrupole moment (field-independent basis, Debye-Ang):
   XX=            -15.2948   YY=            -15.2948   ZZ=            -18.9253
   XY=              0.0000   XZ=              0.0000   YZ=              0.0000

 \\#P ROCCSD(T)=(maxcyc=100, Full)/Gen SCF=(maxcycle=400, symm) Pseudo=
 49641\CCSD(T)=-124.359267\RMSD=5.006e-09\PG=C*V [C*(H1Fe1)]\\@
 Normal termination of Gaussian 16 at Mon Feb 12 20:23:49 2018.
