 Gaussian 16, Revision A.03,
 Gaussian 16:  ES64L-G16RevA.03 25-Dec-2016

 ----------------------------------------------------------------------
 #P ROCCSD(T)=(maxcyc=100, Full)/Gen SCF=(maxcycle=400, symm) Pseudo=Re
 ad Integral(NoXCTest) Pop=Regular MaxDisk=500GB Guess=Permute IOp(5/15
 =2)
 ----------------------------------------------------------------------

 ---
 FeH
 ---
 Symbolic Z-matrix:
 Charge =  0 Multiplicity = 4

                         Standard orientation:
 ---------------------------------------------------------------------
 Center     Atomic      Atomic             Coordinates (Angstroms)
 Number     Number       Type             X           Y           Z
 ---------------------------------------------------------------------
      1         26           0        0.000000    0.000000    0.066667
      2          1           0        0.000000    0.000000   -1.733333
 ---------------------------------------------------------------------

 SCF Done:  E(ROHF) =  -123.584674709     A.U. after   26 cycles
 E2 =    -0.8141495212D+00 EUMP2 =    -0.12439882423040D+03
 CCSD(T)
 CCSD(T)= -0.12440673835D+03

 Unable to determine electronic state:  an orbital has unidentified symmetry.
 Alpha  occ. eigenvalues --   -4.16657  -2.74912  -2.74592  -2.74592  -0.48743
 Alpha  occ. eigenvalues --   -0.48743  -0.48446  -0.43334  -0.42533  -0.31783
 Alpha virt. eigenvalues --   -0.00924   0.02053   0.02053   0.02724   0.03091
 Alpha virt. eigenvalues --    0.05745   0.06151   0.06163   0.06364   0.06364
 Alpha virt. eigenvalues --    0.07290   0.07290   0.08869   0.12674   0.15917

 Mulliken charges and spin densities:
               1          2
     1  Fe   0.306090   2.997223
     2  H   -0.306090   0.002777
 Sum of Mulliken charges =  -0.00000   3.00000

 Dipole moment (field-independent basis, Debye):
    X=              0.0000    Y=              0.0000    Z=              4.9962  Tot=              4.9962
 Quadrupole moment (field-independent basis, Debye-Ang):
   XX=            -15.2768   YY=            -15.2768   ZZ=            -18.9399
   XY=              0.0000   XZ=              0.0000   YZ=              0.0000

 \\#P ROCCSD(T)=(maxcyc=100, Full)/Gen SCF=(maxcycle=400, symm) Pseudo=
 789788\CCSD(T)=-124.4067384\RMSD=2.250e-09\PG=C*V [C*(H1Fe1)]\\@
 Normal termination of Gaussian 16 at Mon Feb 12 22:43:23 2018.
