 Gaussian 16, Revision A.03,
 Gaussian 16:  ES64L-G16RevA.03 25-Dec-2016

 ----------------------------------------------------------------------
 #P ROCCSD(T)=(maxcyc=150, Full, SaveAmplitudes, ReadAmplitudes)/Gen 5d
  7f SCF=(maxcycles=300) Integral(NoXCTest) MaxDisk=500GB Pop=Regular P
 seudo=Read Guess=Read
 ----------------------------------------------------------------------

 ---
 ScO
 ---
 Symbolic Z-matrix:
 Charge =  0 Multiplicity = 2

                         Standard orientation:
 ---------------------------------------------------------------------
 Center     Atomic      Atomic             Coordinates (Angstroms)
 Number     Number       Type             X           Y           Z
 ---------------------------------------------------------------------
      1         21           0        0.000000    0.000000    0.468966
      2          8           0        0.000000    0.000000   -1.231034
 ---------------------------------------------------------------------

 SCF Done:  E(ROHF) =  -61.9666316423     A.U. after   15 cycles
 E2 =    -0.7129383990D+00 EUMP2 =    -0.62679570041328D+02
 CCSD(T)
 CCSD(T)= -0.62707138752D+02

 The electronic state is 2-SG.
 Alpha  occ. eigenvalues --   -2.66602  -1.66254  -1.63258  -1.63258  -1.12603
 Alpha  occ. eigenvalues --   -0.42742  -0.41136  -0.41136  -0.25263
 Alpha virt. eigenvalues --   -0.00045  -0.00045   0.01307   0.02040   0.02701
 Alpha virt. eigenvalues --    0.02701   0.02975   0.02975   0.03230   0.03230
 Alpha virt. eigenvalues --    0.03452   0.04604   0.06761   0.06761   0.09312

 Mulliken charges and spin densities:
               1          2
     1  Sc   1.267205   0.987022
     2  O   -1.267205   0.012978
 Sum of Mulliken charges =   0.00000   1.00000

 Dipole moment (field-independent basis, Debye):
    X=              0.0000    Y=              0.0000    Z=              4.8522  Tot=              4.8522
 Quadrupole moment (field-independent basis, Debye-Ang):
   XX=            -21.8382   YY=            -21.8382   ZZ=            -32.5089
   XY=              0.0000   XZ=              0.0000   YZ=              0.0000

 \\#P ROCCSD(T)=(maxcyc=150, Full, SaveAmplitudes, ReadAmplitudes)/Gen
 6316\PMP2-0=-62.67957\CCSD=-62.6644639\CCSD(T)=-62.7071388\RMSD=3.290e
 Normal termination of Gaussian 16 at Wed Mar  7 13:00:43 2018.
