 Gaussian 16, Revision A.03,
 Gaussian 16:  ES64L-G16RevA.03 25-Dec-2016

 ----------------------------------------------------------------------
 #P ROCCSD(T)=(MaxCyc=150, Full)/Gen SCF=(maxcycle=400, vshift=200) Int
 egral(DKHSO, NoXCTest) Pop=Regular MaxDisk=500GB Guess=Read IOp(5/15=2
 )
 ----------------------------------------------------------------------

 ---
 FeH
 ---
 Symbolic Z-matrix:
 Charge =  0 Multiplicity = 4

                         Standard orientation:
 ---------------------------------------------------------------------
 Center     Atomic      Atomic             Coordinates (Angstroms)
 Number     Number       Type             X           Y           Z
 ---------------------------------------------------------------------
      1         26           0        0.000000    0.000000    0.074074
      2          1           0        0.000000    0.000000   -1.925926
 ---------------------------------------------------------------------

 SCF Done:  E(ROHF) =  -1271.80706323     A.U. after   33 cycles
 E2 =    -0.1225889143D+01 EUMP2 =    -0.12730329523730D+04
 CCSD(T)
 CCSD(T)= -0.12730223664D+04

 Unable to determine electronic state:  an orbital has unidentified symmetry.
 Alpha  occ. eigenvalues -- -263.52602 -32.29516 -27.36516 -27.36516 -27.36279
 Alpha  occ. eigenvalues --   -4.19462  -2.74511  -2.74329  -2.74329  -0.48586
 Alpha  occ. eigenvalues --   -0.48586  -0.48527  -0.43555  -0.42424  -0.30965
 Alpha virt. eigenvalues --   -0.01320   0.01971   0.01971   0.02698   0.02980
 Alpha virt. eigenvalues --    0.05730   0.06086   0.06098   0.06374   0.06374
 Alpha virt. eigenvalues --    0.07212   0.07212   0.09074   0.12337   0.15136

 Mulliken charges and spin densities:
               1          2
     1  Fe   0.343145   2.998171
     2  H   -0.343145   0.001829
 Sum of Mulliken charges =  -0.00000   3.00000

 Dipole moment (field-independent basis, Debye):
    X=             -0.0000    Y=              0.0000    Z=              5.5298  Tot=              5.5298
 Quadrupole moment (field-independent basis, Debye-Ang):
   XX=            -15.4879   YY=            -15.4879   ZZ=            -21.1146
   XY=             -0.0000   XZ=             -0.0000   YZ=              0.0000

 \\#P ROCCSD(T)=(MaxCyc=150, Full)/Gen SCF=(maxcycle=400, vshift=200) I
 MP2-0=-1273.0329524\MP4SDQ=-1272.9985957\CCSD=-1272.992356\CCSD(T)=-12
 Normal termination of Gaussian 16 at Fri Mar  9 12:00:07 2018.
