 Gaussian 16, Revision A.03,
 Gaussian 16:  ES64L-G16RevA.03 25-Dec-2016

 ----------------------------------------------------------------------
 #P ROCCSD(T)=(maxcyc=150, Full, SaveAmplitudes, ReadAmplitudes)/Gen 5d
  7f SCF=(maxcycles=300) Integral(NoXCTest) MaxDisk=500GB Pop=Regular P
 seudo=Read Guess=Read IOp(5/15=2)
 ----------------------------------------------------------------------

 ---
 TiO
 ---
 Symbolic Z-matrix:
 Charge =  0 Multiplicity = 3

                         Standard orientation:
 ---------------------------------------------------------------------
 Center     Atomic      Atomic             Coordinates (Angstroms)
 Number     Number       Type             X           Y           Z
 ---------------------------------------------------------------------
      1         22           0        0.000000    0.000000    0.346667
      2          8           0        0.000000    0.000000   -0.953333
 ---------------------------------------------------------------------

 SCF Done:  E(ROHF) =  -73.2699996819     A.U. after   23 cycles
 E2 =    -0.7323682840D+00 EUMP2 =    -0.74002367965869D+02
 CCSD(T)
 CCSD(T)= -0.74027343441D+02

 Unable to determine electronic state:  an orbital has unidentified symmetry.
 Alpha  occ. eigenvalues --   -2.95359  -1.95899  -1.82270  -1.82270  -1.14619
 Alpha  occ. eigenvalues --   -0.59191  -0.59191  -0.52508  -0.35814  -0.21652
 Alpha virt. eigenvalues --    0.01195   0.01195   0.02320   0.02548   0.04818
 Alpha virt. eigenvalues --    0.04818   0.05013   0.05166   0.05328   0.05796
 Alpha virt. eigenvalues --    0.05796   0.08532   0.11819   0.13737   0.14640

 Mulliken charges and spin densities:
               1          2
     1  Ti   0.694034   2.041459
     2  O   -0.694034  -0.041459
 Sum of Mulliken charges =  -0.00000   2.00000

 Dipole moment (field-independent basis, Debye):
    X=              0.0000    Y=              0.0000    Z=              0.6386  Tot=              0.6386
 Quadrupole moment (field-independent basis, Debye-Ang):
   XX=            -22.0161   YY=            -22.0161   ZZ=            -27.0626
   XY=              0.0000   XZ=              0.0000   YZ=              0.0000

 \\#P ROCCSD(T)=(maxcyc=150, Full, SaveAmplitudes, ReadAmplitudes)/Gen
 928063\CCSD(T)=-74.0273434\RMSD=2.618e-09\PG=C*V [C*(O1Ti1)]\\@
 Normal termination of Gaussian 16 at Sun Mar 11 04:27:47 2018.
