 Gaussian 16, Revision A.03,
 Gaussian 16:  ES64L-G16RevA.03 25-Dec-2016

 ----------------------------------------------------------------------
 #P ROCCSD(T)=(MaxCyc=150, Full)/Gen SCF=(maxcycle=400) Pseudo=Read Int
 egral(NoXCTest) Pop=Regular MaxDisk=500GB Guess=Read IOp(5/15=2)
 ----------------------------------------------------------------------

 ---
 CuO
 ---
 Symbolic Z-matrix:
 Charge =  0 Multiplicity = 2

                         Standard orientation:
 ---------------------------------------------------------------------
 Center     Atomic      Atomic             Coordinates (Angstroms)
 Number     Number       Type             X           Y           Z
 ---------------------------------------------------------------------
      1         29           0        0.000000    0.000000    0.345946
      2          8           0        0.000000    0.000000   -1.254054
 ---------------------------------------------------------------------

 SCF Done:  E(ROHF) =  -212.205648670     A.U. after   17 cycles
 E2 =    -0.1286165270D+01 EUMP2 =    -0.21349181394047D+03
 CCSD(T)
 CCSD(T)= -0.21342756005D+03

 Unable to determine electronic state:  an orbital has unidentified symmetry.
 Alpha  occ. eigenvalues --   -5.29162  -3.56352  -3.55515  -3.55074  -1.25444
 Alpha  occ. eigenvalues --   -0.61036  -0.57553  -0.56723  -0.52965  -0.52963
 Alpha  occ. eigenvalues --   -0.47728  -0.42089  -0.39339
 Alpha virt. eigenvalues --   -0.00878   0.02937   0.03104   0.04039   0.04805
 Alpha virt. eigenvalues --    0.10570   0.10965   0.13730   0.19430   0.19742
 Alpha virt. eigenvalues --    0.19765   0.21121   0.21583   0.22618   0.26027

 Mulliken charges and spin densities:
               1          2
     1  Cu   0.869343   0.031969
     2  O   -0.869343   0.968031
 Sum of Mulliken charges =  -0.00000   1.00000

 Dipole moment (field-independent basis, Debye):
    X=              0.0000    Y=              0.0000    Z=              5.2789  Tot=              5.2789
 Quadrupole moment (field-independent basis, Debye-Ang):
   XX=            -15.8889   YY=            -17.4344   ZZ=            -19.5141
   XY=              0.0000   XZ=              0.0000   YZ=              0.0000

 \\#P ROCCSD(T)=(MaxCyc=150, Full)/Gen SCF=(maxcycle=400) Pseudo=Read I
 .4918139\MP4SDQ=-213.4557181\CCSD=-213.3796204\CCSD(T)=-213.42756\RMSD
 Normal termination of Gaussian 16 at Mon Mar 26 10:29:41 2018.
