 Gaussian 16, Revision A.03,
 Gaussian 16:  ES64L-G16RevA.03 25-Dec-2016

 ----------------------------------------------------------------------
 #P ROCCSD(T)=(MaxCyc=150, Full)/Gen SCF=(maxcycle=400) Pseudo=Read Int
 egral(NoXCTest) Pop=Regular MaxDisk=500GB Guess=Read IOp(5/15=2)
 ----------------------------------------------------------------------

 ---
 CuO
 ---
 Symbolic Z-matrix:
 Charge =  0 Multiplicity = 2

                         Standard orientation:
 ---------------------------------------------------------------------
 Center     Atomic      Atomic             Coordinates (Angstroms)
 Number     Number       Type             X           Y           Z
 ---------------------------------------------------------------------
      1         29           0        0.000000    0.000000    0.345946
      2          8           0        0.000000    0.000000   -1.254054
 ---------------------------------------------------------------------

 SCF Done:  E(ROHF) =  -212.220784888     A.U. after   18 cycles
 E2 =    -0.1350036251D+01 EUMP2 =    -0.21357082113883D+03
 CCSD(T)
 CCSD(T)= -0.21350377026D+03

 Unable to determine electronic state:  an orbital has unidentified symmetry.
 Alpha  occ. eigenvalues --   -5.28882  -3.56152  -3.55326  -3.54888  -1.25401
 Alpha  occ. eigenvalues --   -0.61035  -0.57557  -0.56709  -0.52982  -0.52980
 Alpha  occ. eigenvalues --   -0.47730  -0.42084  -0.39327
 Alpha virt. eigenvalues --   -0.00883   0.02610   0.02745   0.03590   0.04556
 Alpha virt. eigenvalues --    0.09062   0.09367   0.11906   0.13521   0.13530
 Alpha virt. eigenvalues --    0.14383   0.14406   0.14855   0.19076   0.21540

 Mulliken charges and spin densities:
               1          2
     1  Cu   0.720650   0.034569
     2  O   -0.720650   0.965431
 Sum of Mulliken charges =  -0.00000   1.00000

 Dipole moment (field-independent basis, Debye):
    X=              0.0000    Y=              0.0000    Z=              5.2652  Tot=              5.2652
 Quadrupole moment (field-independent basis, Debye-Ang):
   XX=            -15.8775   YY=            -17.4071   ZZ=            -19.5320
   XY=              0.0000   XZ=              0.0000   YZ=              0.0000

 \\#P ROCCSD(T)=(MaxCyc=150, Full)/Gen SCF=(maxcycle=400) Pseudo=Read I
 .5708211\MP4SDQ=-213.5287108\CCSD=-213.4533367\CCSD(T)=-213.5037703\RM
 Normal termination of Gaussian 16 at Mon Mar 26 13:06:26 2018.
