 Gaussian 16, Revision A.03,
 Gaussian 16:  ES64L-G16RevA.03 25-Dec-2016

 ----------------------------------------------------------------------
 #P ROCCSD(T)=(maxcyc=150, Full, SaveAmplitudes, ReadAmplitudes)/Gen 5d
  7f SCF=(maxcycles=300, VShift=400) Integral(NoXCTest) MaxDisk=500GB P
 op=Full Pseudo=Read Guess=Read IOp(5/15=2)
 ----------------------------------------------------------------------

 ---
 CrO
 ---
 Symbolic Z-matrix:
 Charge =  0 Multiplicity = 5

                         Standard orientation:
 ---------------------------------------------------------------------
 Center     Atomic      Atomic             Coordinates (Angstroms)
 Number     Number       Type             X           Y           Z
 ---------------------------------------------------------------------
      1         24           0        0.000000    0.000000    0.475000
      2          8           0        0.000000    0.000000   -1.425000
 ---------------------------------------------------------------------

 SCF Done:  E(ROHF) =  -101.974532577     A.U. after   66 cycles
 E2 =    -0.8608564159D+00 EUMP2 =    -0.10283538899261D+03
 CCSD(T)
 CCSD(T)= -0.10289322555D+03

 Unable to determine electronic state:  an orbital has unidentified symmetry.
 Alpha  occ. eigenvalues --   -3.70844  -2.49250  -2.44082  -2.43435  -1.08570
 Alpha  occ. eigenvalues --   -0.58976  -0.56529  -0.56405  -0.53767  -0.33187
 Alpha  occ. eigenvalues --   -0.32641  -0.31997
 Alpha virt. eigenvalues --   -0.05451   0.00484   0.01162   0.01502   0.03697
 Alpha virt. eigenvalues --    0.04738   0.05928   0.07329   0.07333   0.07619
 Alpha virt. eigenvalues --    0.08314   0.08565   0.12611   0.12787   0.15418

 Mulliken charges and spin densities:
               1          2
     1  Cr   1.129335   3.965822
     2  O   -1.129335   0.034178
 Sum of Mulliken charges =  -0.00000   4.00000

 Dipole moment (field-independent basis, Debye):
    X=              0.0000    Y=              0.0000    Z=             10.2347  Tot=             10.2347
 Quadrupole moment (field-independent basis, Debye-Ang):
   XX=            -19.6949   YY=            -18.9877   ZZ=            -24.8207
   XY=              0.0000   XZ=              0.0000   YZ=              0.0000

 \\#P ROCCSD(T)=(maxcyc=150, Full, SaveAmplitudes, ReadAmplitudes)/Gen
 0107\CCSD=-102.8388007\CCSD(T)=-102.8932256\RMSD=9.849e-09\PG=C*V [C*(
 Normal termination of Gaussian 16 at Sun Mar 18 18:03:42 2018.
