 Gaussian 16, Revision A.03,
 Gaussian 16:  ES64L-G16RevA.03 25-Dec-2016

 ----------------------------------------------------------------------
 #P ROCCSD(T)=(maxcyc=150, Full, SaveAmplitudes, ReadAmplitudes)/Gen 5d
  7f SCF=(maxcycles=300) Integral(NoXCTest) MaxDisk=500GB Pop=Regular P
 seudo=Read Guess=Read IOp(5/15=2)
 ----------------------------------------------------------------------

 ---
 CrH
 ---
 Symbolic Z-matrix:
 Charge =  0 Multiplicity = 6

                         Standard orientation:
 ---------------------------------------------------------------------
 Center     Atomic      Atomic             Coordinates (Angstroms)
 Number     Number       Type             X           Y           Z
 ---------------------------------------------------------------------
      1         24           0        0.000000    0.000000    0.072000
      2          1           0        0.000000    0.000000   -1.728000
 ---------------------------------------------------------------------

 SCF Done:  E(ROHF) =  -86.3742364615     A.U. after   28 cycles
 E2 =    -0.5168436907D+00 EUMP2 =    -0.86891080152145D+02
 CCSD(T)
 CCSD(T)= -0.86932634154D+02

 The electronic state is 6-SG.
 Alpha  occ. eigenvalues --   -3.86349  -2.58263  -2.58263  -2.53584  -0.51168
 Alpha  occ. eigenvalues --   -0.51168  -0.48220  -0.48220  -0.40562  -0.27178
 Alpha virt. eigenvalues --    0.01169   0.01169   0.02263   0.02600   0.05302
 Alpha virt. eigenvalues --    0.05302   0.05713   0.07630   0.07630   0.08048
 Alpha virt. eigenvalues --    0.08048   0.09014   0.10368   0.17222   0.20426

 Mulliken charges and spin densities:
               1          2
     1  Cr   0.399561   4.976450
     2  H   -0.399561   0.023550
 Sum of Mulliken charges =  -0.00000   5.00000

 Dipole moment (field-independent basis, Debye):
    X=              0.0000    Y=              0.0000    Z=              2.2760  Tot=              2.2760
 Quadrupole moment (field-independent basis, Debye-Ang):
   XX=            -17.2839   YY=            -17.2839   ZZ=            -25.0614
   XY=              0.0000   XZ=              0.0000   YZ=              0.0000

 \\#P ROCCSD(T)=(maxcyc=150, Full, SaveAmplitudes, ReadAmplitudes)/Gen
 26\CCSD=-86.9163377\CCSD(T)=-86.9326342\RMSD=3.701e-09\PG=C*V [C*(H1Cr
 Normal termination of Gaussian 16 at Mon Feb 26 13:04:42 2018.
