 Gaussian 16, Revision A.03,
 Gaussian 16:  ES64L-G16RevA.03 25-Dec-2016

 ----------------------------------------------------------------------
 #P ROCCSD(T)=(maxcyc=150, Full)/Gen 5d 7f SCF=(maxcycles=300) MaxDisk=
 500GB Pop=Regular Pseudo=Read Guess=Read
 ----------------------------------------------------------------------

 -
 O
 -
 Symbolic Z-matrix:
 Charge =  0 Multiplicity = 3

                         Standard orientation:
 ---------------------------------------------------------------------
 Center     Atomic      Atomic             Coordinates (Angstroms)
 Number     Number       Type             X           Y           Z
 ---------------------------------------------------------------------
      1          8           0        0.000000    0.000000    0.000000
 ---------------------------------------------------------------------

 SCF Done:  E(ROHF) =  -15.6517295211     A.U. after   12 cycles
 E2 =    -0.1734410507D+00 EUMP2 =    -0.15825170571757D+02
 CCSD(T)
 CCSD(T)= -0.15843135161D+02

 Unable to determine electronic state:  an orbital has unidentified symmetry.
 Alpha  occ. eigenvalues --   -1.41757  -0.70348  -0.70348  -0.60716
 Alpha virt. eigenvalues --    0.10435   0.10435   0.10974   0.12057   0.39140
 Alpha virt. eigenvalues --    0.39140   0.39965   0.39965   0.40223   0.47006
 Alpha virt. eigenvalues --    0.47006   0.49257   0.71491   0.95777   0.95777

 Mulliken charges and spin densities:
               1          2
     1  O    0.000000   2.000000
 Sum of Mulliken charges =   0.00000   2.00000

 Dipole moment (field-independent basis, Debye):
    X=              0.0000    Y=              0.0000    Z=              0.0000  Tot=              0.0000
 Quadrupole moment (field-independent basis, Debye-Ang):
   XX=             -5.8122   YY=             -4.5764   ZZ=             -4.5764
   XY=             -0.0000   XZ=              0.0000   YZ=              0.0000

 P ROCCSD(T)=(maxcyc=150, Full)/Gen 5d 7f SCF=(maxcycles=300) MaxDisk=5
 Normal termination of Gaussian 16 at Wed Feb 21 16:19:05 2018.
