 Gaussian 16, Revision A.03,
 Gaussian 16:  ES64L-G16RevA.03 25-Dec-2016

 ----------------------------------------------------------------------
 #P ROCCSD(T)=(maxcyc=150, Full)/Gen 5d 7f SCF=(maxcycles=300) Integral
 (NoXCTest, DKHSO) MaxDisk=500GB Pop=Regular IOp(5/15=2) Guess=Read
 ----------------------------------------------------------------------

 ---
 CrH
 ---
 Symbolic Z-matrix:
 Charge =  0 Multiplicity = 6

                         Standard orientation:
 ---------------------------------------------------------------------
 Center     Atomic      Atomic             Coordinates (Angstroms)
 Number     Number       Type             X           Y           Z
 ---------------------------------------------------------------------
      1         24           0        0.000000    0.000000    0.064000
      2          1           0        0.000000    0.000000   -1.536000
 ---------------------------------------------------------------------

 SCF Done:  E(ROHF) =  -1050.20069525     A.U. after    1 cycles
 E2 =    -0.9212881910D+00 EUMP2 =    -0.10511219834382D+04
 CCSD(T)
 CCSD(T)= -0.10511552133D+04

 The electronic state is 6-SG.
 Alpha  occ. eigenvalues -- -222.18978 -26.78217 -22.41628 -22.41628 -22.41594
 Alpha  occ. eigenvalues --   -3.65627  -2.41081  -2.41081  -2.37308  -0.53081
 Alpha  occ. eigenvalues --   -0.53081  -0.50008  -0.50008  -0.41748  -0.25753
 Alpha virt. eigenvalues --    0.01388   0.01388   0.02281   0.02490   0.05653
 Alpha virt. eigenvalues --    0.05653   0.05908   0.07657   0.07657   0.08068
 Alpha virt. eigenvalues --    0.08068   0.08734   0.10337   0.18197   0.21225

 Mulliken charges and spin densities:
               1          2
     1  Cr   0.516298   4.987117
     2  H   -0.516298   0.012883
 Sum of Mulliken charges =  -0.00000   5.00000

 Dipole moment (field-independent basis, Debye):
    X=              0.0000    Y=              0.0000    Z=              1.9708  Tot=              1.9708
 Quadrupole moment (field-independent basis, Debye-Ang):
   XX=            -17.2793   YY=            -17.2793   ZZ=            -23.5869
   XY=              0.0000   XZ=              0.0000   YZ=              0.0000

 \\#P ROCCSD(T)=(maxcyc=150, Full)/Gen 5d 7f SCF=(maxcycles=300) Integr
 Normal termination of Gaussian 16 at Tue Feb 13 17:59:14 2018.
