 Gaussian 16, Revision A.03,
 Gaussian 16:  ES64L-G16RevA.03 25-Dec-2016

 ----------------------------------------------------------------------
 #P ROCCSD(T)=(maxcyc=150, Full)/Gen 5d 7f SCF=(maxcycles=300) Integral
 (NoXCTest) MaxDisk=500GB Pop=Regular Pseudo=Read IOp(5/15=2) Guess=Rea
 d
 ----------------------------------------------------------------------

 ---
 ScH
 ---
 Symbolic Z-matrix:
 Charge =  0 Multiplicity = 1

                         Standard orientation:
 ---------------------------------------------------------------------
 Center     Atomic      Atomic             Coordinates (Angstroms)
 Number     Number       Type             X           Y           Z
 ---------------------------------------------------------------------
      1         21           0        0.000000    0.000000    0.050000
      2          1           0        0.000000    0.000000   -1.050000
 ---------------------------------------------------------------------

 SCF Done:  E(ROHF) =  -46.6151308139     A.U. after   12 cycles
 E2 =    -0.4176065423D+00 EUMP2 =    -0.47032737356158D+02
 CCSD(T)
 CCSD(T)= -0.47071431950D+02

 The electronic state is 1-SG.
 Alpha  occ. eigenvalues --   -2.64465  -1.64451  -1.57438  -1.57438  -0.47294
 Alpha  occ. eigenvalues --   -0.21424
 Alpha virt. eigenvalues --    0.01390   0.01427   0.01427   0.02278   0.03463
 Alpha virt. eigenvalues --    0.03916   0.03916   0.03960   0.03960   0.04843
 Alpha virt. eigenvalues --    0.05038   0.05038   0.09435   0.10910   0.10910

 Mulliken charges and spin densities:
               1          2
     1  Sc   0.508270   0.000000
     2  H   -0.508270   0.000000
 Sum of Mulliken charges =  -0.00000   0.00000

 Dipole moment (field-independent basis, Debye):
    X=              0.0000    Y=              0.0000    Z=              0.9572  Tot=              0.9572
 Quadrupole moment (field-independent basis, Debye-Ang):
   XX=            -23.4802   YY=            -23.4802   ZZ=            -21.9928
   XY=              0.0000   XZ=              0.0000   YZ=              0.0000

 P ROCCSD(T)=(maxcyc=150, Full)/Gen 5d 7f SCF=(maxcycles=300) Integral(
 PMP2-0=-47.0327374\MP4SDQ=-47.0545661\CCSD=-47.0542043\CCSD(T)=-47.071
 Normal termination of Gaussian 16 at Tue Feb 13 17:26:50 2018.
