 Gaussian 16, Revision A.03,
 Gaussian 16:  ES64L-G16RevA.03 25-Dec-2016

 ----------------------------------------------------------------------
 #P ROCCSD(T)=(maxcyc=150, Full, SaveAmplitudes, ReadAmplitudes)/Gen 5d
  7f SCF=(maxcycles=300) Integral(NoXCTest) MaxDisk=500GB Pop=Regular P
 seudo=Read Guess=Read IOp(5/15=2)
 ----------------------------------------------------------------------

 ---
 MnO
 ---
 Symbolic Z-matrix:
 Charge =  0 Multiplicity = 6

                         Standard orientation:
 ---------------------------------------------------------------------
 Center     Atomic      Atomic             Coordinates (Angstroms)
 Number     Number       Type             X           Y           Z
 ---------------------------------------------------------------------
      1         25           0        0.000000    0.000000    0.436364
      2          8           0        0.000000    0.000000   -1.363636
 ---------------------------------------------------------------------

 SCF Done:  E(ROHF) =  -119.138983664     A.U. after   32 cycles
 E2 =    -0.8878378667D+00 EUMP2 =    -0.12002682153085D+03
 CCSD(T)
 CCSD(T)= -0.12005571263D+03

 The electronic state is 6-SG.
 Alpha  occ. eigenvalues --   -4.24473  -2.80079  -2.80079  -2.79497  -1.09756
 Alpha  occ. eigenvalues --   -0.65246  -0.65246  -0.64968  -0.64968  -0.61746
 Alpha  occ. eigenvalues --   -0.33764  -0.33764  -0.33223
 Alpha virt. eigenvalues --   -0.05230   0.01394   0.01394   0.01642   0.03828
 Alpha virt. eigenvalues --    0.06440   0.06440   0.08192   0.08354   0.08354
 Alpha virt. eigenvalues --    0.09461   0.09461   0.12858   0.14045   0.22681

 Mulliken charges and spin densities:
               1          2
     1  Mn   1.126228   4.927437
     2  O   -1.126228   0.072563
 Sum of Mulliken charges =  -0.00000   5.00000

 Dipole moment (field-independent basis, Debye):
    X=              0.0000    Y=              0.0000    Z=              9.4720  Tot=              9.4720
 Quadrupole moment (field-independent basis, Debye-Ang):
   XX=            -19.0764   YY=            -19.0764   ZZ=            -24.6678
   XY=              0.0000   XZ=              0.0000   YZ=              0.0000

 \\#P ROCCSD(T)=(maxcyc=150, Full, SaveAmplitudes, ReadAmplitudes)/Gen
 .0250743\CCSD=-120.0149631\CCSD(T)=-120.0557126\RMSD=8.127e-09\PG=C*V
 Normal termination of Gaussian 16 at Tue Mar 13 14:29:00 2018.
