 Gaussian 16, Revision A.03,
 Gaussian 16:  ES64L-G16RevA.03 25-Dec-2016

 ----------------------------------------------------------------------
 #P ROCCSD(T)=(maxcyc=150, Window=(6,0), SaveAmplitudes, ReadAmplitudes
 )/Gen 5d 7f SCF=(maxcycles=300) Integral(NoXCTest, DKHSO) MaxDisk=500G
 B Pop=Regular Guess=Read IOp(5/15=2)
 ----------------------------------------------------------------------

 ---
 MnH
 ---
 Symbolic Z-matrix:
 Charge =  0 Multiplicity = 7

                         Standard orientation:
 ---------------------------------------------------------------------
 Center     Atomic      Atomic             Coordinates (Angstroms)
 Number     Number       Type             X           Y           Z
 ---------------------------------------------------------------------
      1         25           0        0.000000    0.000000    0.076923
      2          1           0        0.000000    0.000000   -1.923077
 ---------------------------------------------------------------------

 SCF Done:  E(ROHF) =  -1157.94062256     A.U. after   24 cycles
 E2 =    -0.5514754089D+00 EUMP2 =    -0.11584920979693D+04
 CCSD(T)
 CCSD(T)= -0.11585098665D+04

 The electronic state is 7-SG.
 Alpha  occ. eigenvalues -- -242.51488 -29.61712 -24.97171 -24.97171 -24.97111
 Alpha  occ. eigenvalues --   -4.10664  -2.75993  -2.75993  -2.75719  -0.65530
 Alpha  occ. eigenvalues --   -0.65530  -0.64828  -0.64828  -0.64782  -0.38701
 Alpha  occ. eigenvalues --   -0.26995
 Alpha virt. eigenvalues --    0.01008   0.01008   0.02298   0.03137   0.05507
 Alpha virt. eigenvalues --    0.05507   0.07961   0.08377   0.08377   0.08874
 Alpha virt. eigenvalues --    0.08874   0.10345   0.13329   0.18149   0.22365

 Mulliken charges and spin densities:
               1          2
     1  Mn   0.432639   5.954820
     2  H   -0.432639   0.045180
 Sum of Mulliken charges =  -0.00000   6.00000

 Dipole moment (field-independent basis, Debye):
    X=              0.0000    Y=              0.0000    Z=              2.4035  Tot=              2.4035
 Quadrupole moment (field-independent basis, Debye-Ang):
   XX=            -16.7491   YY=            -16.7491   ZZ=            -28.3087
   XY=              0.0000   XZ=              0.0000   YZ=              0.0000

 1\1\GINC-C504-081\SP\ROCCSD(T)-RW\Gen\H1Mn1(7)\AANNABE\26-Feb-2018\0\\
 #P ROCCSD(T)=(maxcyc=150, Window=(6,0), SaveAmplitudes, ReadAmplitudes
 )/Gen 5d 7f SCF=(maxcycles=300) Integral(NoXCTest, DKHSO) MaxDisk=500G
 B Pop=Regular Guess=Read IOp(5/15=2)\\MnH\\0,7\Mn,0,0.,0.,0.\H,0,0.,0.
 ,2.\\Version=ES64L-G16RevA.03\State=7-SG\HF=-1157.9406226\MP2=-1158.49
 2098\MP3=-1158.4877021\PUHF=-1157.9406226\PMP2-0=-1158.492098\MP4SDQ=-
 1158.4947556\CCSD=-1158.4953962\CCSD(T)=-1158.5098665\RMSD=8.545e-09\P
 G=C*V [C*(H1Mn1)]\\@

 Normal termination of Gaussian 16 at Mon Feb 26 05:26:13 2018.
