 Gaussian 16, Revision A.03,
 Gaussian 16:  ES64L-G16RevA.03 25-Dec-2016

 ----------------------------------------------------------------------
 #P ROCCSD(T)=(maxcyc=150, Full, SaveAmplitudes, ReadAmplitudes)/Gen 5d
  7f SCF=(maxcycles=300) Integral(NoXCTest) MaxDisk=500GB Pop=Regular P
 seudo=Read Guess=Read IOp(5/15=2)
 ----------------------------------------------------------------------

 ---
 ScO
 ---
 Symbolic Z-matrix:
 Charge =  0 Multiplicity = 2

                         Standard orientation:
 ---------------------------------------------------------------------
 Center     Atomic      Atomic             Coordinates (Angstroms)
 Number     Number       Type             X           Y           Z
 ---------------------------------------------------------------------
      1         21           0        0.000000    0.000000    0.331034
      2          8           0        0.000000    0.000000   -0.868966
 ---------------------------------------------------------------------

 SCF Done:  E(ROHF) =  -61.6496856464     A.U. after   18 cycles
 E2 =    -0.6522638444D+00 EUMP2 =    -0.62301949490765D+02
 CCSD(T)
 CCSD(T)= -0.62333010356D+02

 The electronic state is 2-SG.
 Alpha  occ. eigenvalues --   -2.61773  -1.82015  -1.52161  -1.52161  -1.04527
 Alpha  occ. eigenvalues --   -0.63756  -0.63756  -0.47724  -0.17895
 Alpha virt. eigenvalues --    0.01032   0.01032   0.01786   0.02772   0.03767
 Alpha virt. eigenvalues --    0.03767   0.03801   0.03801   0.03863   0.04918
 Alpha virt. eigenvalues --    0.04918   0.07197   0.11117   0.11117   0.11180

 Mulliken charges and spin densities:
               1          2
     1  Sc   1.073128   1.029638
     2  O   -1.073128  -0.029638
 Sum of Mulliken charges =   0.00000   1.00000

 Dipole moment (field-independent basis, Debye):
    X=              0.0000    Y=              0.0000    Z=             -1.2038  Tot=              1.2038
 Quadrupole moment (field-independent basis, Debye-Ang):
   XX=            -23.4892   YY=            -23.4892   ZZ=            -28.9908
   XY=              0.0000   XZ=              0.0000   YZ=              0.0000

 \\#P ROCCSD(T)=(maxcyc=150, Full, SaveAmplitudes, ReadAmplitudes)/Gen
 9\CCSD=-62.3057266\CCSD(T)=-62.3330104\RMSD=3.949e-09\PG=C*V [C*(O1Sc1
 Normal termination of Gaussian 16 at Mon Mar  5 18:21:47 2018.
