 Gaussian 16, Revision A.03,
 Gaussian 16:  ES64L-G16RevA.03 25-Dec-2016

 ----------------------------------------------------------------------
 #P ROCCSD(T)=(MaxCyc=150, Full)/Gen SCF=(maxcycle=400) Pseudo=Read Int
 egral(NoXCTest) Pop=Regular MaxDisk=500GB Guess=Read IOp(5/15=2)
 ----------------------------------------------------------------------

 ---
 ZnO
 ---
 Symbolic Z-matrix:
 Charge =  0 Multiplicity = 1

                         Standard orientation:
 ---------------------------------------------------------------------
 Center     Atomic      Atomic             Coordinates (Angstroms)
 Number     Number       Type             X           Y           Z
 ---------------------------------------------------------------------
      1         30           0        0.000000    0.000000    0.400000
      2          8           0        0.000000    0.000000   -1.500000
 ---------------------------------------------------------------------

 SCF Done:  E(ROHF) =  -241.658786069     A.U. after    1 cycles
 E2 =    -0.1324964542D+01 EUMP2 =    -0.24298375061029D+03
 CCSD(T)
 CCSD(T)= -0.24294710652D+03

 The electronic state is 1-SG.
 Alpha  occ. eigenvalues --   -5.59882  -3.89263  -3.89263  -3.89227  -1.14725
 Alpha  occ. eigenvalues --   -0.81617  -0.81617  -0.81477  -0.81477  -0.80458
 Alpha  occ. eigenvalues --   -0.42726  -0.42726  -0.35564
 Alpha virt. eigenvalues --   -0.04391   0.02464   0.02464   0.02722   0.04531
 Alpha virt. eigenvalues --    0.08380   0.08380   0.13146   0.17359   0.21505
 Alpha virt. eigenvalues --    0.22874   0.22874   0.24701   0.24701   0.29813

 Mulliken charges and spin densities:
               1          2
     1  Zn   0.793344   0.000000
     2  O   -0.793344   0.000000
 Sum of Mulliken charges =   0.00000   0.00000

 Dipole moment (field-independent basis, Debye):
    X=              0.0000    Y=              0.0000    Z=              6.2118  Tot=              6.2118
 Quadrupole moment (field-independent basis, Debye-Ang):
   XX=            -18.4376   YY=            -18.4376   ZZ=            -21.8852
   XY=              0.0000   XZ=              0.0000   YZ=              0.0000

 P ROCCSD(T)=(MaxCyc=150, Full)/Gen SCF=(maxcycle=400) Pseudo=Read Inte
 2-0=-242.9837506\MP4SDQ=-242.9317904\CCSD=-242.8987364\CCSD(T)=-242.94
 Normal termination of Gaussian 16 at Tue Mar 27 11:39:50 2018.
