 Gaussian 16, Revision A.03,
 Gaussian 16:  ES64L-G16RevA.03 25-Dec-2016

 ----------------------------------------------------------------------
 #P ROCCSD(T)=(MaxCyc=150, Full)/Gen SCF=(maxcycle=400) Pseudo=Read Int
 egral(NoXCTest) Pop=Regular MaxDisk=500GB Guess=Read IOp(5/15=2)
 ----------------------------------------------------------------------

 ---
 ZnO
 ---
 Symbolic Z-matrix:
 Charge =  0 Multiplicity = 1

                         Standard orientation:
 ---------------------------------------------------------------------
 Center     Atomic      Atomic             Coordinates (Angstroms)
 Number     Number       Type             X           Y           Z
 ---------------------------------------------------------------------
      1         30           0        0.000000    0.000000    0.400000
      2          8           0        0.000000    0.000000   -1.500000
 ---------------------------------------------------------------------

 SCF Done:  E(ROHF) =  -241.661933179     A.U. after   11 cycles
 E2 =    -0.1392048250D+01 EUMP2 =    -0.24305398142877D+03
 CCSD(T)
 CCSD(T)= -0.24301489622D+03

 The electronic state is 1-SG.
 Alpha  occ. eigenvalues --   -5.59840  -3.89235  -3.89235  -3.89195  -1.14689
 Alpha  occ. eigenvalues --   -0.81605  -0.81605  -0.81470  -0.81470  -0.80443
 Alpha  occ. eigenvalues --   -0.42742  -0.42742  -0.35543
 Alpha virt. eigenvalues --   -0.04376   0.02263   0.02263   0.02489   0.04081
 Alpha virt. eigenvalues --    0.07339   0.07339   0.11718   0.16529   0.16942
 Alpha virt. eigenvalues --    0.17817   0.17817   0.19813   0.19813   0.23199

 Mulliken charges and spin densities:
               1          2
     1  Zn   0.753474   0.000000
     2  O   -0.753474   0.000000
 Sum of Mulliken charges =   0.00000   0.00000

 Dipole moment (field-independent basis, Debye):
    X=              0.0000    Y=              0.0000    Z=              6.1985  Tot=              6.1985
 Quadrupole moment (field-independent basis, Debye-Ang):
   XX=            -18.4250   YY=            -18.4250   ZZ=            -21.8874
   XY=              0.0000   XZ=              0.0000   YZ=              0.0000

 P ROCCSD(T)=(MaxCyc=150, Full)/Gen SCF=(maxcycle=400) Pseudo=Read Inte
 2-0=-243.0539814\MP4SDQ=-242.9965569\CCSD=-242.9639825\CCSD(T)=-243.01
 Normal termination of Gaussian 16 at Tue Mar 27 13:57:16 2018.
