 Gaussian 16, Revision A.03,
 Gaussian 16:  ES64L-G16RevA.03 25-Dec-2016

 ----------------------------------------------------------------------
 #P ROCCSD(T)=(maxcyc=150, Full)/Gen 5d 7f SCF=(maxcycles=300) Integral
 (NoXCTest) MaxDisk=500GB Pop=Regular Pseudo=Read
 ----------------------------------------------------------------------

 ---
 ScH
 ---
 Symbolic Z-matrix:
 Charge =  0 Multiplicity = 1

                         Standard orientation:
 ---------------------------------------------------------------------
 Center     Atomic      Atomic             Coordinates (Angstroms)
 Number     Number       Type             X           Y           Z
 ---------------------------------------------------------------------
      1         21           0        0.000000    0.000000    0.072727
      2          1           0        0.000000    0.000000   -1.527273
 ---------------------------------------------------------------------

 SCF Done:  E(ROHF) =  -46.6548279299     A.U. after   12 cycles
 E2 =    -0.4103069410D+00 EUMP2 =    -0.47065134870817D+02
 CCSD(T)
 CCSD(T)= -0.47108658877D+02

 The electronic state is 1-SG.
 Alpha  occ. eigenvalues --   -2.66709  -1.65009  -1.64523  -1.64523  -0.42978
 Alpha  occ. eigenvalues --   -0.22569
 Alpha virt. eigenvalues --    0.01246   0.01246   0.01640   0.02168   0.03526
 Alpha virt. eigenvalues --    0.03881   0.03881   0.03918   0.03918   0.04679
 Alpha virt. eigenvalues --    0.04679   0.04945   0.09099   0.09099   0.09417

 Mulliken charges and spin densities:
               1          2
     1  Sc   0.397068   0.000000
     2  H   -0.397068   0.000000
 Sum of Mulliken charges =  -0.00000   0.00000

 Dipole moment (field-independent basis, Debye):
    X=              0.0000    Y=              0.0000    Z=              0.9757  Tot=              0.9757
 Quadrupole moment (field-independent basis, Debye-Ang):
   XX=            -23.2320   YY=            -23.2320   ZZ=            -25.2900
   XY=              0.0000   XZ=              0.0000   YZ=              0.0000

 P ROCCSD(T)=(maxcyc=150, Full)/Gen 5d 7f SCF=(maxcycles=300) Integral(
 DQ=-47.0910625\CCSD=-47.0905987\CCSD(T)=-47.1086589\RMSD=4.412e-09\PG=
 Normal termination of Gaussian 16 at Tue Feb 13 01:04:03 2018.
