 Gaussian 16, Revision A.03,
 Gaussian 16:  ES64L-G16RevA.03 25-Dec-2016

 ----------------------------------------------------------------------
 #P ROCCSD(T)=(maxcyc=150, Full, SaveAmplitudes, ReadAmplitudes)/Gen 5d
  7f SCF=(maxcycles=300) Integral(NoXCTest) MaxDisk=500GB Pop=Regular P
 seudo=Read Guess=Read
 ----------------------------------------------------------------------

 ---
 MnH
 ---
 Symbolic Z-matrix:
 Charge =  0 Multiplicity = 7

                         Standard orientation:
 ---------------------------------------------------------------------
 Center     Atomic      Atomic             Coordinates (Angstroms)
 Number     Number       Type             X           Y           Z
 ---------------------------------------------------------------------
      1         25           0        0.000000    0.000000    0.065385
      2          1           0        0.000000    0.000000   -1.634615
 ---------------------------------------------------------------------

 SCF Done:  E(ROHF) =  -104.244334105     A.U. after   21 cycles
 E2 =    -0.6011129258D+00 EUMP2 =    -0.10484544703125D+03
 CCSD(T)
 CCSD(T)= -0.10486667768D+03

 The electronic state is 7-SG.
 Alpha  occ. eigenvalues --   -4.17690  -2.76634  -2.76634  -2.76447  -0.65194
 Alpha  occ. eigenvalues --   -0.65194  -0.64970  -0.64521  -0.64521  -0.40936
 Alpha  occ. eigenvalues --   -0.26047
 Alpha virt. eigenvalues --    0.01219   0.01219   0.02147   0.02923   0.05095
 Alpha virt. eigenvalues --    0.05095   0.05644   0.05804   0.05804   0.06198
 Alpha virt. eigenvalues --    0.06198   0.09062   0.13306   0.14104   0.18077

 Mulliken charges and spin densities:
               1          2
     1  Mn   0.362795   5.949494
     2  H   -0.362795   0.050506
 Sum of Mulliken charges =  -0.00000   6.00000

 Dipole moment (field-independent basis, Debye):
    X=              0.0000    Y=              0.0000    Z=              1.3262  Tot=              1.3262
 Quadrupole moment (field-independent basis, Debye-Ang):
   XX=            -16.0956   YY=            -16.0956   ZZ=            -26.2864
   XY=              0.0000   XZ=              0.0000   YZ=              0.0000

 \\#P ROCCSD(T)=(maxcyc=150, Full, SaveAmplitudes, ReadAmplitudes)/Gen
 .2443341\PMP2-0=-104.845447\CCSD=-104.850135\CCSD(T)=-104.8666777\RMSD
 Normal termination of Gaussian 16 at Mon Feb 26 11:42:03 2018.
