 Gaussian 16, Revision A.03,
 Gaussian 16:  ES64L-G16RevA.03 25-Dec-2016

 ----------------------------------------------------------------------
 #P ROCCSD(T)=(MaxCyc=150, Full)/Gen SCF=(maxcycle=400, vshift=200) Pse
 udo=Read Integral(NoXCTest) Pop=Regular MaxDisk=500GB Guess=Read IOp(5
 /15=2)
 ----------------------------------------------------------------------

 ---
 CuO
 ---
 Symbolic Z-matrix:
 Charge =  0 Multiplicity = 2

                         Standard orientation:
 ---------------------------------------------------------------------
 Center     Atomic      Atomic             Coordinates (Angstroms)
 Number     Number       Type             X           Y           Z
 ---------------------------------------------------------------------
      1         29           0        0.000000    0.000000    0.345946
      2          8           0        0.000000    0.000000   -1.254054
 ---------------------------------------------------------------------

 SCF Done:  E(ROHF) =  -211.025284458     A.U. after   19 cycles
 E2 =    -0.1292061788D+01 EUMP2 =    -0.21231734624606D+03
 CCSD(T)
 CCSD(T)= -0.21224950351D+03

 Unable to determine electronic state:  an orbital has unidentified symmetry.
 Alpha  occ. eigenvalues --   -5.26595  -3.44055  -3.43195  -3.42758  -1.26342
 Alpha  occ. eigenvalues --   -0.61104  -0.57674  -0.56689  -0.53110  -0.53108
 Alpha  occ. eigenvalues --   -0.47822  -0.42149  -0.39286
 Alpha virt. eigenvalues --   -0.00838   0.02942   0.03106   0.04036   0.04840
 Alpha virt. eigenvalues --    0.10610   0.10998   0.13714   0.19417   0.19741
 Alpha virt. eigenvalues --    0.19763   0.21172   0.21572   0.22603   0.26027

 Mulliken charges and spin densities:
               1          2
     1  Cu   0.844692   0.031283
     2  O   -0.844692   0.968717
 Sum of Mulliken charges =  -0.00000   1.00000

 Dipole moment (field-independent basis, Debye):
    X=              0.0000    Y=              0.0000    Z=              5.2632  Tot=              5.2632
 Quadrupole moment (field-independent basis, Debye-Ang):
   XX=            -15.9262   YY=            -17.4626   ZZ=            -19.5289
   XY=              0.0000   XZ=              0.0000   YZ=              0.0000

 \\#P ROCCSD(T)=(MaxCyc=150, Full)/Gen SCF=(maxcycle=400, vshift=200) P
 \PMP2-0=-212.3173462\MP4SDQ=-212.2818032\CCSD=-212.2013912\CCSD(T)=-21
 Normal termination of Gaussian 16 at Sat May  5 21:35:32 2018.
