 Gaussian 16, Revision A.03,
 Gaussian 16:  ES64L-G16RevA.03 25-Dec-2016

 ----------------------------------------------------------------------
 #P ROCCSD(T)=(MaxCyc=150, Full)/Gen SCF=(maxcycle=400, vshift=200) Pse
 udo=Read Integral(NoXCTest) Pop=Regular MaxDisk=500GB Guess=Read IOp(5
 /15=2)
 ----------------------------------------------------------------------

 ---
 CuO
 ---
 Symbolic Z-matrix:
 Charge =  0 Multiplicity = 2

                         Standard orientation:
 ---------------------------------------------------------------------
 Center     Atomic      Atomic             Coordinates (Angstroms)
 Number     Number       Type             X           Y           Z
 ---------------------------------------------------------------------
      1         29           0        0.000000    0.000000    0.345946
      2          8           0        0.000000    0.000000   -1.254054
 ---------------------------------------------------------------------

 SCF Done:  E(ROHF) =  -211.029324630     A.U. after   20 cycles
 E2 =    -0.1356263766D+01 EUMP2 =    -0.21238558839612D+03
 CCSD(T)
 CCSD(T)= -0.21231487917D+03

 Unable to determine electronic state:  an orbital has unidentified symmetry.
 Alpha  occ. eigenvalues --   -5.26584  -3.44027  -3.43175  -3.42741  -1.26290
 Alpha  occ. eigenvalues --   -0.61109  -0.57677  -0.56674  -0.53113  -0.53111
 Alpha  occ. eigenvalues --   -0.47822  -0.42149  -0.39273
 Alpha virt. eigenvalues --   -0.00844   0.02614   0.02747   0.03590   0.04583
 Alpha virt. eigenvalues --    0.09092   0.09391   0.11903   0.13525   0.13535
 Alpha virt. eigenvalues --    0.14373   0.14407   0.14853   0.19122   0.21536

 Mulliken charges and spin densities:
               1          2
     1  Cu   0.730324   0.033162
     2  O   -0.730324   0.966838
 Sum of Mulliken charges =  -0.00000   1.00000

 Dipole moment (field-independent basis, Debye):
    X=              0.0000    Y=              0.0000    Z=              5.2484  Tot=              5.2484
 Quadrupole moment (field-independent basis, Debye-Ang):
   XX=            -15.9168   YY=            -17.4362   ZZ=            -19.5420
   XY=              0.0000   XZ=              0.0000   YZ=              0.0000

 \\#P ROCCSD(T)=(MaxCyc=150, Full)/Gen SCF=(maxcycle=400, vshift=200) P
 \PMP2-0=-212.3855884\MP4SDQ=-212.3438638\CCSD=-212.2642105\CCSD(T)=-21
 Normal termination of Gaussian 16 at Sun May  6 00:10:13 2018.
