 Gaussian 16, Revision A.03,
 Gaussian 16:  ES64L-G16RevA.03 25-Dec-2016

 ----------------------------------------------------------------------
 #P ROCCSD(T)=(maxcyc=150, Full, SaveAmplitudes, ReadAmplitudes)/Gen 5d
  7f SCF=(maxcycles=300, VShift=200) Integral(NoXCTest) MaxDisk=500GB P
 op=Regular Pseudo=Read Guess=Read IOp(5/15=2)
 ----------------------------------------------------------------------

 ---
 MnO
 ---
 Symbolic Z-matrix:
 Charge =  0 Multiplicity = 6

                         Standard orientation:
 ---------------------------------------------------------------------
 Center     Atomic      Atomic             Coordinates (Angstroms)
 Number     Number       Type             X           Y           Z
 ---------------------------------------------------------------------
      1         25           0        0.000000    0.000000    0.412121
      2          8           0        0.000000    0.000000   -1.287879
 ---------------------------------------------------------------------

 SCF Done:  E(ROHF) =  -119.113223951     A.U. after   48 cycles
 E2 =    -0.8922807317D+00 EUMP2 =    -0.12000550468298D+03
 CCSD(T)
 CCSD(T)= -0.12003663015D+03

 The electronic state is 6-SG.
 Alpha  occ. eigenvalues --   -4.15118  -2.79590  -2.79590  -2.78961  -1.12058
 Alpha  occ. eigenvalues --   -0.64444  -0.64444  -0.63672  -0.63672  -0.59568
 Alpha  occ. eigenvalues --   -0.33901  -0.33891  -0.33891
 Alpha virt. eigenvalues --   -0.04608   0.01575   0.01575   0.01841   0.03845
 Alpha virt. eigenvalues --    0.06686   0.06686   0.08211   0.08443   0.08443
 Alpha virt. eigenvalues --    0.09604   0.09604   0.13192   0.14045   0.22999

 Mulliken charges and spin densities:
               1          2
     1  Mn   1.150225   4.892801
     2  O   -1.150225   0.107199
 Sum of Mulliken charges =  -0.00000   5.00000

 Dipole moment (field-independent basis, Debye):
    X=              0.0000    Y=              0.0000    Z=              9.1120  Tot=              9.1120
 Quadrupole moment (field-independent basis, Debye-Ang):
   XX=            -18.8641   YY=            -18.8641   ZZ=            -23.8347
   XY=              0.0000   XZ=              0.0000   YZ=              0.0000

 \\#P ROCCSD(T)=(maxcyc=150, Full, SaveAmplitudes, ReadAmplitudes)/Gen
 P4SDQ=-120.0040966\CCSD=-119.9954358\CCSD(T)=-120.0366302\RMSD=9.663e-
 Normal termination of Gaussian 16 at Fri Mar 16 02:58:05 2018.
