 Gaussian 16, Revision A.03,
 Gaussian 16:  ES64L-G16RevA.03 25-Dec-2016

 ----------------------------------------------------------------------
 #P ROCCSD(T)=(maxcyc=150, Full)/Gen 5d 7f SCF=(maxcycles=300) Integral
 (NoXCTest) MaxDisk=500GB Pop=Regular Pseudo=Read IOp(5/15=2) Guess=Rea
 d
 ----------------------------------------------------------------------

 ---
 ScH
 ---
 Symbolic Z-matrix:
 Charge =  0 Multiplicity = 1

                         Standard orientation:
 ---------------------------------------------------------------------
 Center     Atomic      Atomic             Coordinates (Angstroms)
 Number     Number       Type             X           Y           Z
 ---------------------------------------------------------------------
      1         21           0        0.000000    0.000000    0.081818
      2          1           0        0.000000    0.000000   -1.718182
 ---------------------------------------------------------------------

 SCF Done:  E(ROHF) =  -46.7906223920     A.U. after    9 cycles
 E2 =    -0.4330522384D+00 EUMP2 =    -0.47223674630414D+02
 CCSD(T)
 CCSD(T)= -0.47265509904D+02

 The electronic state is 1-SG.
 Alpha  occ. eigenvalues --   -2.75586  -1.66107  -1.66107  -1.66064  -0.40599
 Alpha  occ. eigenvalues --   -0.23253
 Alpha virt. eigenvalues --    0.01074   0.01074   0.01463   0.01695   0.02592
 Alpha virt. eigenvalues --    0.02592   0.02658   0.02658   0.02694   0.03948
 Alpha virt. eigenvalues --    0.03983   0.03983   0.06795   0.06795   0.06997

 Mulliken charges and spin densities:
               1          2
     1  Sc   0.372127   0.000000
     2  H   -0.372127   0.000000
 Sum of Mulliken charges =  -0.00000   0.00000

 Dipole moment (field-independent basis, Debye):
    X=              0.0000    Y=              0.0000    Z=              1.4210  Tot=              1.4210
 Quadrupole moment (field-independent basis, Debye-Ang):
   XX=            -23.0478   YY=            -23.0478   ZZ=            -26.9686
   XY=              0.0000   XZ=              0.0000   YZ=              0.0000

 P ROCCSD(T)=(maxcyc=150, Full)/Gen 5d 7f SCF=(maxcycles=300) Integral(
 PMP2-0=-47.2236746\MP4SDQ=-47.2455412\CCSD=-47.2456854\CCSD(T)=-47.265
 Normal termination of Gaussian 16 at Wed Feb 14 06:23:04 2018.
