 Gaussian 16, Revision A.03,
 Gaussian 16:  ES64L-G16RevA.03 25-Dec-2016

 ----------------------------------------------------------------------
 #P ROCCSD(T)=(maxcyc=150, Full, SaveAmplitudes, ReadAmplitudes)/Gen 5d
  7f SCF=(maxcycles=300) Integral(NoXCTest) MaxDisk=500GB Pop=Regular P
 seudo=Read Guess=Read IOp(5/15=2)
 ----------------------------------------------------------------------

 ---
 CrO
 ---
 Symbolic Z-matrix:
 Charge =  0 Multiplicity = 5

                         Standard orientation:
 ---------------------------------------------------------------------
 Center     Atomic      Atomic             Coordinates (Angstroms)
 Number     Number       Type             X           Y           Z
 ---------------------------------------------------------------------
      1         24           0        0.000000    0.000000    0.300000
      2          8           0        0.000000    0.000000   -0.900000
 ---------------------------------------------------------------------

 SCF Done:  E(ROHF) =  -101.766926085     A.U. after   29 cycles
 E2 =    -0.8938016846D+00 EUMP2 =    -0.10266072776987D+03
 CCSD(T)
 CCSD(T)= -0.10266608018D+03

 Unable to determine electronic state:  an orbital has unidentified symmetry.
 Alpha  occ. eigenvalues --   -3.75232  -2.48431  -2.44047  -2.40198  -1.25394
 Alpha  occ. eigenvalues --   -0.74662  -0.68398  -0.65062  -0.50483  -0.50380
 Alpha  occ. eigenvalues --   -0.30526  -0.26427
 Alpha virt. eigenvalues --    0.01496   0.02458   0.02776   0.02800   0.05481
 Alpha virt. eigenvalues --    0.07038   0.07660   0.07755   0.07797   0.07799
 Alpha virt. eigenvalues --    0.09601   0.10014   0.12175   0.17968   0.20752

 Mulliken charges and spin densities:
               1          2
     1  Cr   0.822998   3.723390
     2  O   -0.822998   0.276610
 Sum of Mulliken charges =  -0.00000   4.00000

 Dipole moment (field-independent basis, Debye):
    X=              0.0000    Y=              0.0000    Z=              0.3625  Tot=              0.3625
 Quadrupole moment (field-independent basis, Debye-Ang):
   XX=            -22.5699   YY=            -19.8245   ZZ=            -22.7015
   XY=              0.0000   XZ=              0.0000   YZ=              0.0000

 \\#P ROCCSD(T)=(maxcyc=150, Full, SaveAmplitudes, ReadAmplitudes)/Gen
 SD=-102.6262186\CCSD(T)=-102.6660802\RMSD=2.477e-09\PG=C*V [C*(O1Cr1)]
 Normal termination of Gaussian 16 at Mon Mar 12 14:31:02 2018.
