 Gaussian 16, Revision A.03,
 Gaussian 16:  ES64L-G16RevA.03 25-Dec-2016

 ----------------------------------------------------------------------
 #P ROCCSD(T)=(maxcyc=150, Full, SaveAmplitudes, ReadAmplitudes)/Gen 5d
  7f SCF=(maxcycles=300) Integral(NoXCTest) MaxDisk=500GB Pop=Regular P
 seudo=Read Guess=Read IOp(5/15=2)
 ----------------------------------------------------------------------

 ---
 TiO
 ---
 Symbolic Z-matrix:
 Charge =  0 Multiplicity = 3

                         Standard orientation:
 ---------------------------------------------------------------------
 Center     Atomic      Atomic             Coordinates (Angstroms)
 Number     Number       Type             X           Y           Z
 ---------------------------------------------------------------------
      1         22           0        0.000000    0.000000    0.426667
      2          8           0        0.000000    0.000000   -1.173333
 ---------------------------------------------------------------------

 SCF Done:  E(ROHF) =  -73.4165839955     A.U. after   21 cycles
 E2 =    -0.7431866494D+00 EUMP2 =    -0.74159770644928D+02
 CCSD(T)
 CCSD(T)= -0.74189587164D+02

 Unable to determine electronic state:  an orbital has unidentified symmetry.
 Alpha  occ. eigenvalues --   -3.01571  -1.90969  -1.90969  -1.89917  -1.16642
 Alpha  occ. eigenvalues --   -0.46789  -0.45516  -0.45193  -0.45193  -0.26259
 Alpha virt. eigenvalues --    0.00382   0.00382   0.01602   0.02555   0.04121
 Alpha virt. eigenvalues --    0.04121   0.04806   0.04951   0.05181   0.05867
 Alpha virt. eigenvalues --    0.05867   0.06813   0.10766   0.11221   0.13805

 Mulliken charges and spin densities:
               1          2
     1  Ti   0.897736   1.999393
     2  O   -0.897736   0.000607
 Sum of Mulliken charges =  -0.00000   2.00000

 Dipole moment (field-independent basis, Debye):
    X=              0.0000    Y=              0.0000    Z=              4.1443  Tot=              4.1443
 Quadrupole moment (field-independent basis, Debye-Ang):
   XX=            -21.4897   YY=            -21.4897   ZZ=            -29.1139
   XY=              0.0000   XZ=              0.0000   YZ=              0.0000

 \\#P ROCCSD(T)=(maxcyc=150, Full, SaveAmplitudes, ReadAmplitudes)/Gen
 1906\CCSD(T)=-74.1895872\RMSD=6.617e-09\PG=C*V [C*(O1Ti1)]\\@
 Normal termination of Gaussian 16 at Fri Mar  9 15:43:48 2018.
