 Gaussian 16, Revision A.03,
 Gaussian 16:  ES64L-G16RevA.03 25-Dec-2016

 ----------------------------------------------------------------------
 #P ROCCSD(T)=(maxcyc=150, Full, SaveAmplitudes, ReadAmplitudes)/Gen 5d
  7f SCF=(maxcycles=300) Integral(NoXCTest) MaxDisk=500GB Pop=Regular P
 seudo=Read Guess=Read
 ----------------------------------------------------------------------

 ---
 MnO
 ---
 Symbolic Z-matrix:
 Charge =  0 Multiplicity = 6

                         Standard orientation:
 ---------------------------------------------------------------------
 Center     Atomic      Atomic             Coordinates (Angstroms)
 Number     Number       Type             X           Y           Z
 ---------------------------------------------------------------------
      1         25           0        0.000000    0.000000    0.460606
      2          8           0        0.000000    0.000000   -1.439394
 ---------------------------------------------------------------------

 SCF Done:  E(ROHF) =  -119.156990710     A.U. after   22 cycles
 E2 =    -0.9254727273D+00 EUMP2 =    -0.12008246343688D+03
 CCSD(T)
 CCSD(T)= -0.12010781515D+03

 The electronic state is 6-SG.
 Alpha  occ. eigenvalues --   -4.17527  -2.82411  -2.82411  -2.81967  -1.10275
 Alpha  occ. eigenvalues --   -0.65990  -0.65990  -0.65906  -0.65906  -0.63398
 Alpha  occ. eigenvalues --   -0.34718  -0.34718  -0.32315
 Alpha virt. eigenvalues --   -0.05342   0.01097   0.01097   0.01390   0.03343
 Alpha virt. eigenvalues --    0.05525   0.05525   0.05693   0.05693   0.06362
 Alpha virt. eigenvalues --    0.06751   0.06751   0.10773   0.12567   0.17877

 Mulliken charges and spin densities:
               1          2
     1  Mn   1.058801   4.960238
     2  O   -1.058801   0.039762
 Sum of Mulliken charges =  -0.00000   5.00000

 Dipole moment (field-independent basis, Debye):
    X=              0.0000    Y=              0.0000    Z=              9.2755  Tot=              9.2755
 Quadrupole moment (field-independent basis, Debye-Ang):
   XX=            -19.3278   YY=            -19.3278   ZZ=            -25.2028
   XY=              0.0000   XZ=              0.0000   YZ=              0.0000

 \\#P ROCCSD(T)=(maxcyc=150, Full, SaveAmplitudes, ReadAmplitudes)/Gen
 9.1569907\PMP2-0=-120.0824634\CCSD=-120.0664743\CCSD(T)=-120.1078151\R
 Normal termination of Gaussian 16 at Sat Mar 10 11:43:57 2018.
