 Gaussian 16, Revision A.03,
 Gaussian 16:  ES64L-G16RevA.03 25-Dec-2016

 ----------------------------------------------------------------------
 #P ROCCSD(T)=(maxcyc=150, Full, SaveAmplitudes, ReadAmplitudes)/Gen 5d
  7f SCF=(maxcycles=300) Integral(NoXCTest) MaxDisk=500GB Pop=Regular P
 seudo=Read Guess=Read IOp(5/15=2)
 ----------------------------------------------------------------------

 ---
 ScO
 ---
 Symbolic Z-matrix:
 Charge =  0 Multiplicity = 2

                         Standard orientation:
 ---------------------------------------------------------------------
 Center     Atomic      Atomic             Coordinates (Angstroms)
 Number     Number       Type             X           Y           Z
 ---------------------------------------------------------------------
      1         21           0        0.000000    0.000000    0.468966
      2          8           0        0.000000    0.000000   -1.231034
 ---------------------------------------------------------------------

 SCF Done:  E(ROHF) =  -61.9634067670     A.U. after   13 cycles
 E2 =    -0.6826132473D+00 EUMP2 =    -0.62646020014301D+02
 CCSD(T)
 CCSD(T)= -0.62676012337D+02

 The electronic state is 2-SG.
 Alpha  occ. eigenvalues --   -2.66533  -1.66673  -1.63709  -1.63709  -1.12656
 Alpha  occ. eigenvalues --   -0.42739  -0.41117  -0.41117  -0.25267
 Alpha virt. eigenvalues --   -0.00040  -0.00040   0.01445   0.02233   0.03532
 Alpha virt. eigenvalues --    0.03532   0.03580   0.03580   0.04202   0.04202
 Alpha virt. eigenvalues --    0.04382   0.05441   0.08090   0.08090   0.10506

 Mulliken charges and spin densities:
               1          2
     1  Sc   1.255646   0.974892
     2  O   -1.255646   0.025108
 Sum of Mulliken charges =  -0.00000   1.00000

 Dipole moment (field-independent basis, Debye):
    X=              0.0000    Y=              0.0000    Z=              4.8576  Tot=              4.8576
 Quadrupole moment (field-independent basis, Debye-Ang):
   XX=            -21.8525   YY=            -21.8525   ZZ=            -32.5650
   XY=              0.0000   XZ=              0.0000   YZ=              0.0000

 \\#P ROCCSD(T)=(maxcyc=150, Full, SaveAmplitudes, ReadAmplitudes)/Gen
 CSD=-62.6354111\CCSD(T)=-62.6760123\RMSD=4.353e-09\PG=C*V [C*(O1Sc1)]\
 Normal termination of Gaussian 16 at Mon Mar  5 18:24:36 2018.
