 Gaussian 16, Revision A.03,
 Gaussian 16:  ES64L-G16RevA.03 25-Dec-2016

 ----------------------------------------------------------------------
 #P ROCCSD(T)=(MaxCyc=150, Full)/Gen SCF=(maxcycle=400) Pseudo=Read Int
 egral(NoXCTest) Pop=Regular MaxDisk=500GB Guess=Read IOp(5/15=2)
 ----------------------------------------------------------------------

 ---
 CuH
 ---
 Symbolic Z-matrix:
 Charge =  0 Multiplicity = 1

                         Standard orientation:
 ---------------------------------------------------------------------
 Center     Atomic      Atomic             Coordinates (Angstroms)
 Number     Number       Type             X           Y           Z
 ---------------------------------------------------------------------
      1         29           0        0.000000    0.000000    0.046667
      2          1           0        0.000000    0.000000   -1.353333
 ---------------------------------------------------------------------

 SCF Done:  E(ROHF) =  -197.116379960     A.U. after    8 cycles
 E2 =    -0.1161774633D+01 EUMP2 =    -0.19827815459321D+03
 CCSD(T)
 CCSD(T)= -0.19819568264D+03

 The electronic state is 1-SG.
 Alpha  occ. eigenvalues --   -5.25564  -3.52475  -3.51904  -3.51904  -0.51669
 Alpha  occ. eigenvalues --   -0.50322  -0.50322  -0.49896  -0.49896  -0.34054
 Alpha virt. eigenvalues --    0.00192   0.02572   0.02572   0.02903   0.04414
 Alpha virt. eigenvalues --    0.07780   0.08611   0.08611   0.12074   0.12074
 Alpha virt. eigenvalues --    0.12092   0.12525   0.12525   0.15273   0.18654

 Mulliken charges and spin densities:
               1          2
     1  Cu   0.320364   0.000000
     2  H   -0.320364   0.000000
 Sum of Mulliken charges =  -0.00000   0.00000

 Dipole moment (field-independent basis, Debye):
    X=              0.0000    Y=              0.0000    Z=              3.7875  Tot=              3.7875
 Quadrupole moment (field-independent basis, Debye-Ang):
   XX=            -13.6868   YY=            -13.6868   ZZ=            -15.4854
   XY=              0.0000   XZ=              0.0000   YZ=              0.0000

 P ROCCSD(T)=(MaxCyc=150, Full)/Gen SCF=(maxcycle=400) Pseudo=Read Inte
 -198.2781546\MP4SDQ=-198.2275279\CCSD=-198.1557085\CCSD(T)=-198.195682
 Normal termination of Gaussian 16 at Thu May  3 11:12:35 2018.
