 Gaussian 16, Revision A.03,
 Gaussian 16:  ES64L-G16RevA.03 25-Dec-2016

 ----------------------------------------------------------------------
 #P ROCCSD(T)=(maxcyc=150, Full)/Gen 5d 7f SCF=(maxcycles=300) Integral
 (NoXCTest) MaxDisk=500GB Pop=Regular Pseudo=Read Guess=Read
 ----------------------------------------------------------------------

 ---
 MnH
 ---
 Symbolic Z-matrix:
 Charge =  0 Multiplicity = 7

                         Standard orientation:
 ---------------------------------------------------------------------
 Center     Atomic      Atomic             Coordinates (Angstroms)
 Number     Number       Type             X           Y           Z
 ---------------------------------------------------------------------
      1         25           0        0.000000    0.000000    0.084615
      2          1           0        0.000000    0.000000   -2.115385
 ---------------------------------------------------------------------

 SCF Done:  E(ROHF) =  -104.044553675     A.U. after   17 cycles
 E2 =    -0.6019490858D+00 EUMP2 =    -0.10464650276098D+03
 CCSD(T)
 CCSD(T)= -0.10467032416D+03

 The electronic state is 7-SG.
 Alpha  occ. eigenvalues --   -4.18729  -2.83467  -2.83467  -2.83191  -0.66784
 Alpha  occ. eigenvalues --   -0.66784  -0.66157  -0.66157  -0.66015  -0.37415
 Alpha  occ. eigenvalues --   -0.27431
 Alpha virt. eigenvalues --    0.00717   0.00717   0.01727   0.02761   0.04469
 Alpha virt. eigenvalues --    0.04469   0.05126   0.05253   0.05253   0.05700
 Alpha virt. eigenvalues --    0.05700   0.08555   0.09887   0.11427   0.16004

 Mulliken charges and spin densities:
               1          2
     1  Mn   0.372988   5.945726
     2  H   -0.372988   0.054274
 Sum of Mulliken charges =  -0.00000   6.00000

 Dipole moment (field-independent basis, Debye):
    X=              0.0000    Y=              0.0000    Z=              3.2074  Tot=              3.2074
 Quadrupole moment (field-independent basis, Debye-Ang):
   XX=            -16.6642   YY=            -16.6642   ZZ=            -29.5423
   XY=              0.0000   XZ=              0.0000   YZ=              0.0000

 \\#P ROCCSD(T)=(maxcyc=150, Full)/Gen 5d 7f SCF=(maxcycles=300) Integr
 0=-104.6465028\MP4SDQ=-104.6513138\CCSD=-104.6535189\CCSD(T)=-104.6703
 Normal termination of Gaussian 16 at Tue Feb 13 19:59:34 2018.
