 Gaussian 16, Revision A.03,
 Gaussian 16:  ES64L-G16RevA.03 25-Dec-2016

 ----------------------------------------------------------------------
 #P ROCCSD(T)=(MaxCyc=150, Full)/Gen SCF=(maxcycle=400) Pseudo=Read Int
 egral(NoXCTest) Pop=Regular MaxDisk=500GB Guess=Read IOp(5/15=2)
 ----------------------------------------------------------------------

 ---
 ZnO
 ---
 Symbolic Z-matrix:
 Charge =  0 Multiplicity = 1

                         Standard orientation:
 ---------------------------------------------------------------------
 Center     Atomic      Atomic             Coordinates (Angstroms)
 Number     Number       Type             X           Y           Z
 ---------------------------------------------------------------------
      1         30           0        0.000000    0.000000    0.400000
      2          8           0        0.000000    0.000000   -1.500000
 ---------------------------------------------------------------------

 SCF Done:  E(ROHF) =  -241.242683738     A.U. after    1 cycles
 E2 =    -0.1300941922D+01 EUMP2 =    -0.24254362565966D+03
 CCSD(T)
 CCSD(T)= -0.24250395994D+03

 The electronic state is 1-SG.
 Alpha  occ. eigenvalues --   -5.90614  -4.02291  -4.02291  -4.02242  -1.16418
 Alpha  occ. eigenvalues --   -0.82170  -0.82170  -0.82016  -0.82016  -0.81017
 Alpha  occ. eigenvalues --   -0.42730  -0.42730  -0.35570
 Alpha virt. eigenvalues --   -0.04377   0.02468   0.02468   0.02727   0.04535
 Alpha virt. eigenvalues --    0.08417   0.08417   0.13147   0.17389   0.21531
 Alpha virt. eigenvalues --    0.22888   0.22888   0.24696   0.24696   0.29972

 Mulliken charges and spin densities:
               1          2
     1  Zn   0.797290   0.000000
     2  O   -0.797290   0.000000
 Sum of Mulliken charges =  -0.00000   0.00000

 Dipole moment (field-independent basis, Debye):
    X=              0.0000    Y=              0.0000    Z=              6.2234  Tot=              6.2234
 Quadrupole moment (field-independent basis, Debye-Ang):
   XX=            -18.5605   YY=            -18.5605   ZZ=            -22.0533
   XY=              0.0000   XZ=              0.0000   YZ=              0.0000

 P ROCCSD(T)=(MaxCyc=150, Full)/Gen SCF=(maxcycle=400) Pseudo=Read Inte
 -0=-242.5436257\MP4SDQ=-242.4891535\CCSD=-242.4565327\CCSD(T)=-242.503
 Normal termination of Gaussian 16 at Tue Mar 27 11:59:16 2018.
