 Gaussian 16, Revision A.03,
 Gaussian 16:  ES64L-G16RevA.03 25-Dec-2016

 ----------------------------------------------------------------------
 #P ROCCSD(T)=(MaxCyc=150, Full)/Gen SCF=(maxcycle=400) Pseudo=Read Int
 egral(NoXCTest) Pop=Regular MaxDisk=500GB Guess=Read IOp(5/15=2)
 ----------------------------------------------------------------------

 ---
 ZnO
 ---
 Symbolic Z-matrix:
 Charge =  0 Multiplicity = 1

                         Standard orientation:
 ---------------------------------------------------------------------
 Center     Atomic      Atomic             Coordinates (Angstroms)
 Number     Number       Type             X           Y           Z
 ---------------------------------------------------------------------
      1         30           0        0.000000    0.000000    0.400000
      2          8           0        0.000000    0.000000   -1.500000
 ---------------------------------------------------------------------

 SCF Done:  E(ROHF) =  -241.245420448     A.U. after   11 cycles
 E2 =    -0.1368361555D+01 EUMP2 =    -0.24261378200317D+03
 CCSD(T)
 CCSD(T)= -0.24257171002D+03

 The electronic state is 1-SG.
 Alpha  occ. eigenvalues --   -5.90595  -4.02269  -4.02269  -4.02215  -1.16382
 Alpha  occ. eigenvalues --   -0.82153  -0.82153  -0.82003  -0.82003  -0.80997
 Alpha  occ. eigenvalues --   -0.42749  -0.42749  -0.35551
 Alpha virt. eigenvalues --   -0.04361   0.02267   0.02267   0.02492   0.04085
 Alpha virt. eigenvalues --    0.07367   0.07367   0.11718   0.16558   0.16960
 Alpha virt. eigenvalues --    0.17810   0.17810   0.19823   0.19823   0.23203

 Mulliken charges and spin densities:
               1          2
     1  Zn   0.756594   0.000000
     2  O   -0.756594   0.000000
 Sum of Mulliken charges =  -0.00000   0.00000

 Dipole moment (field-independent basis, Debye):
    X=              0.0000    Y=              0.0000    Z=              6.2093  Tot=              6.2093
 Quadrupole moment (field-independent basis, Debye-Ang):
   XX=            -18.5479   YY=            -18.5479   ZZ=            -22.0552
   XY=              0.0000   XZ=              0.0000   YZ=              0.0000

 P ROCCSD(T)=(MaxCyc=150, Full)/Gen SCF=(maxcycle=400) Pseudo=Read Inte
 -0=-242.613782\MP4SDQ=-242.5538585\CCSD=-242.5217217\CCSD(T)=-242.5717
 Normal termination of Gaussian 16 at Tue Mar 27 14:16:37 2018.
