 Gaussian 16, Revision A.03,
 Gaussian 16:  ES64L-G16RevA.03 25-Dec-2016

 ----------------------------------------------------------------------
 #P ROCCSD(T)=(maxcyc=150, Full, SaveAmplitudes, ReadAmplitudes)/Gen 5d
  7f SCF=(maxcycles=300) Integral(NoXCTest) MaxDisk=500GB Pop=Regular P
 seudo=Read Guess=Read IOp(5/15=2)
 ----------------------------------------------------------------------

 ---
 MnH
 ---
 Symbolic Z-matrix:
 Charge =  0 Multiplicity = 7

                         Standard orientation:
 ---------------------------------------------------------------------
 Center     Atomic      Atomic             Coordinates (Angstroms)
 Number     Number       Type             X           Y           Z
 ---------------------------------------------------------------------
      1         25           0        0.000000    0.000000    0.061538
      2          1           0        0.000000    0.000000   -1.538462
 ---------------------------------------------------------------------

 SCF Done:  E(ROHF) =  -104.237802444     A.U. after   26 cycles
 E2 =    -0.5763155287D+00 EUMP2 =    -0.10481411797233D+03
 CCSD(T)
 CCSD(T)= -0.10483594824D+03

 The electronic state is 7-SG.
 Alpha  occ. eigenvalues --   -4.17344  -2.76261  -2.76261  -2.76156  -0.65021
 Alpha  occ. eigenvalues --   -0.64833  -0.64833  -0.64202  -0.64202  -0.41533
 Alpha  occ. eigenvalues --   -0.25664
 Alpha virt. eigenvalues --    0.01334   0.01334   0.02295   0.03156   0.05825
 Alpha virt. eigenvalues --    0.05825   0.08376   0.08490   0.08490   0.08955
 Alpha virt. eigenvalues --    0.08955   0.09583   0.14008   0.20183   0.22828

 Mulliken charges and spin densities:
               1          2
     1  Mn   0.435483   5.956838
     2  H   -0.435483   0.043162
 Sum of Mulliken charges =   0.00000   6.00000

 Dipole moment (field-independent basis, Debye):
    X=              0.0000    Y=              0.0000    Z=              0.9735  Tot=              0.9735
 Quadrupole moment (field-independent basis, Debye-Ang):
   XX=            -16.0277   YY=            -16.0277   ZZ=            -25.8888
   XY=              0.0000   XZ=              0.0000   YZ=              0.0000

 \\#P ROCCSD(T)=(maxcyc=150, Full, SaveAmplitudes, ReadAmplitudes)/Gen
 19493\CCSD=-104.8201803\CCSD(T)=-104.8359482\RMSD=6.038e-09\PG=C*V [C*
 Normal termination of Gaussian 16 at Mon Feb 26 08:37:53 2018.
