 Gaussian 16, Revision A.03,
 Gaussian 16:  ES64L-G16RevA.03 25-Dec-2016

 ----------------------------------------------------------------------
 #P ROCCSD(T)=(MaxCyc=150, Full)/Gen SCF=(maxcycle=400, vshift=200) Pse
 udo=Read Integral(NoXCTest) Pop=Regular MaxDisk=500GB Guess=Read IOp(5
 /15=2)
 ----------------------------------------------------------------------

 ---
 ZnH
 ---
 Symbolic Z-matrix:
 Charge =  0 Multiplicity = 2

                         Standard orientation:
 ---------------------------------------------------------------------
 Center     Atomic      Atomic             Coordinates (Angstroms)
 Number     Number       Type             X           Y           Z
 ---------------------------------------------------------------------
      1         30           0        0.000000    0.000000    0.035484
      2          1           0        0.000000    0.000000   -1.064516
 ---------------------------------------------------------------------

 SCF Done:  E(ROHF) =  -225.691414530     A.U. after   22 cycles
 E2 =    -0.1130796933D+01 EUMP2 =    -0.22682221146243D+03
 CCSD(T)
 CCSD(T)= -0.22676420891D+03

 The electronic state is 2-SG.
 Alpha  occ. eigenvalues --   -5.90361  -3.99142  -3.97663  -3.97663  -0.86238
 Alpha  occ. eigenvalues --   -0.82247  -0.82247  -0.81747  -0.81747  -0.49223
 Alpha  occ. eigenvalues --   -0.26269
 Alpha virt. eigenvalues --    0.01973   0.01973   0.02022   0.03408   0.06381
 Alpha virt. eigenvalues --    0.06381   0.06998   0.11966   0.13858   0.15261
 Alpha virt. eigenvalues --    0.15261   0.15553   0.15553   0.19353   0.20171

 Mulliken charges and spin densities:
               1          2
     1  Zn   0.364118   0.959163
     2  H   -0.364118   0.040837
 Sum of Mulliken charges =  -0.00000   1.00000

 Dipole moment (field-independent basis, Debye):
    X=              0.0000    Y=              0.0000    Z=             -0.4584  Tot=              0.4584
 Quadrupole moment (field-independent basis, Debye-Ang):
   XX=            -14.4417   YY=            -14.4417   ZZ=            -20.5081
   XY=              0.0000   XZ=              0.0000   YZ=              0.0000

 \\#P ROCCSD(T)=(MaxCyc=150, Full)/Gen SCF=(maxcycle=400, vshift=200) P
 CCSD(T)=-226.7642089\RMSD=6.099e-09\PG=C*V [C*(H1Zn1)]\\@
 Normal termination of Gaussian 16 at Mon Apr 30 13:13:15 2018.
