 Gaussian 16, Revision A.03,
 Gaussian 16:  ES64L-G16RevA.03 25-Dec-2016

 ----------------------------------------------------------------------
 #P ROCCSD(T)=(MaxCyc=150, Full)/Gen SCF=(maxcycle=400, vshift=200) Pse
 udo=Read Integral(NoXCTest) Pop=Regular MaxDisk=500GB Guess=Read IOp(5
 /15=2)
 ----------------------------------------------------------------------

 ---
 ZnH
 ---
 Symbolic Z-matrix:
 Charge =  0 Multiplicity = 2

                         Standard orientation:
 ---------------------------------------------------------------------
 Center     Atomic      Atomic             Coordinates (Angstroms)
 Number     Number       Type             X           Y           Z
 ---------------------------------------------------------------------
      1         30           0        0.000000    0.000000    0.035484
      2          1           0        0.000000    0.000000   -1.064516
 ---------------------------------------------------------------------

 SCF Done:  E(ROHF) =  -225.690093939     A.U. after   25 cycles
 E2 =    -0.1049294900D+01 EUMP2 =    -0.22673938883927D+03
 CCSD(T)
 CCSD(T)= -0.22668434703D+03

 The electronic state is 2-SG.
 Alpha  occ. eigenvalues --   -5.90370  -3.99154  -3.97678  -3.97678  -0.86240
 Alpha  occ. eigenvalues --   -0.82248  -0.82248  -0.81753  -0.81753  -0.49227
 Alpha  occ. eigenvalues --   -0.26267
 Alpha virt. eigenvalues --    0.02164   0.02164   0.02481   0.04197   0.07751
 Alpha virt. eigenvalues --    0.07751   0.08975   0.16345   0.19232   0.24364
 Alpha virt. eigenvalues --    0.24364   0.25169   0.25169   0.27257   0.28008

 Mulliken charges and spin densities:
               1          2
     1  Zn   0.299674   0.957709
     2  H   -0.299674   0.042291
 Sum of Mulliken charges =  -0.00000   1.00000

 Dipole moment (field-independent basis, Debye):
    X=              0.0000    Y=              0.0000    Z=             -0.4547  Tot=              0.4547
 Quadrupole moment (field-independent basis, Debye-Ang):
   XX=            -14.4511   YY=            -14.4511   ZZ=            -20.4960
   XY=              0.0000   XZ=              0.0000   YZ=              0.0000

 \\#P ROCCSD(T)=(MaxCyc=150, Full)/Gen SCF=(maxcycle=400, vshift=200) P
 CCSD(T)=-226.684347\RMSD=5.719e-09\PG=C*V [C*(H1Zn1)]\\@
 Normal termination of Gaussian 16 at Sun Apr 22 03:55:10 2018.
