 Gaussian 16, Revision A.03,
 Gaussian 16:  ES64L-G16RevA.03 25-Dec-2016

 ----------------------------------------------------------------------
 #P ROCCSD(T)=(MaxCyc=150, Full)/Gen SCF=(maxcycle=400, vshift=200) Pse
 udo=Read Integral(NoXCTest) Pop=Regular MaxDisk=500GB Guess=Read IOp(5
 /15=2)
 ----------------------------------------------------------------------

 ---
 ZnH
 ---
 Symbolic Z-matrix:
 Charge =  0 Multiplicity = 2

                         Standard orientation:
 ---------------------------------------------------------------------
 Center     Atomic      Atomic             Coordinates (Angstroms)
 Number     Number       Type             X           Y           Z
 ---------------------------------------------------------------------
      1         30           0        0.000000    0.000000    0.035484
      2          1           0        0.000000    0.000000   -1.064516
 ---------------------------------------------------------------------

 SCF Done:  E(ROHF) =  -225.691271920     A.U. after   23 cycles
 E2 =    -0.1104216784D+01 EUMP2 =    -0.22679548870330D+03
 CCSD(T)
 CCSD(T)= -0.22673949790D+03

 The electronic state is 2-SG.
 Alpha  occ. eigenvalues --   -5.90362  -3.99143  -3.97664  -3.97664  -0.86240
 Alpha  occ. eigenvalues --   -0.82247  -0.82247  -0.81749  -0.81749  -0.49223
 Alpha  occ. eigenvalues --   -0.26268
 Alpha virt. eigenvalues --    0.02037   0.02037   0.02296   0.03863   0.06809
 Alpha virt. eigenvalues --    0.06809   0.08077   0.14775   0.17642   0.17746
 Alpha virt. eigenvalues --    0.17746   0.18243   0.18243   0.22122   0.22713

 Mulliken charges and spin densities:
               1          2
     1  Zn   0.235037   0.944894
     2  H   -0.235037   0.055106
 Sum of Mulliken charges =  -0.00000   1.00000

 Dipole moment (field-independent basis, Debye):
    X=              0.0000    Y=              0.0000    Z=             -0.4576  Tot=              0.4576
 Quadrupole moment (field-independent basis, Debye-Ang):
   XX=            -14.4443   YY=            -14.4443   ZZ=            -20.5065
   XY=              0.0000   XZ=              0.0000   YZ=              0.0000

 \\#P ROCCSD(T)=(MaxCyc=150, Full)/Gen SCF=(maxcycle=400, vshift=200) P
 CCSD(T)=-226.7394979\RMSD=5.328e-09\PG=C*V [C*(H1Zn1)]\\@
 Normal termination of Gaussian 16 at Sun Apr 22 04:52:35 2018.
