 Gaussian 16, Revision A.03,
 Gaussian 16:  ES64L-G16RevA.03 25-Dec-2016

 ----------------------------------------------------------------------
 #P ROCCSD(T)=(maxcyc=150, Full, SaveAmplitudes, ReadAmplitudes)/Gen 5d
  7f SCF=(maxcycles=300) Integral(NoXCTest) MaxDisk=500GB Pop=Regular P
 seudo=Read Guess=Read IOp(5/15=2)
 ----------------------------------------------------------------------

 ---
 MnH
 ---
 Symbolic Z-matrix:
 Charge =  0 Multiplicity = 7

                         Standard orientation:
 ---------------------------------------------------------------------
 Center     Atomic      Atomic             Coordinates (Angstroms)
 Number     Number       Type             X           Y           Z
 ---------------------------------------------------------------------
      1         25           0        0.000000    0.000000    0.065385
      2          1           0        0.000000    0.000000   -1.634615
 ---------------------------------------------------------------------

 SCF Done:  E(ROHF) =  -104.072399277     A.U. after   24 cycles
 E2 =    -0.5684977996D+00 EUMP2 =    -0.10464089707687D+03
 CCSD(T)
 CCSD(T)= -0.10466323870D+03

 The electronic state is 7-SG.
 Alpha  occ. eigenvalues --   -4.24316  -2.79751  -2.79751  -2.79530  -0.64512
 Alpha  occ. eigenvalues --   -0.64512  -0.64301  -0.63814  -0.63814  -0.40841
 Alpha  occ. eigenvalues --   -0.26105
 Alpha virt. eigenvalues --    0.01240   0.01240   0.02328   0.03134   0.05717
 Alpha virt. eigenvalues --    0.05717   0.08298   0.08470   0.08470   0.08942
 Alpha virt. eigenvalues --    0.08942   0.09776   0.13923   0.19717   0.22661

 Mulliken charges and spin densities:
               1          2
     1  Mn   0.433201   5.959128
     2  H   -0.433201   0.040872
 Sum of Mulliken charges =  -0.00000   6.00000

 Dipole moment (field-independent basis, Debye):
    X=              0.0000    Y=              0.0000    Z=              1.2936  Tot=              1.2936
 Quadrupole moment (field-independent basis, Debye-Ang):
   XX=            -16.2086   YY=            -16.2086   ZZ=            -26.3992
   XY=              0.0000   XZ=              0.0000   YZ=              0.0000

 \\#P ROCCSD(T)=(maxcyc=150, Full, SaveAmplitudes, ReadAmplitudes)/Gen
 .6469747\CCSD=-104.6477919\CCSD(T)=-104.6632387\RMSD=5.570e-09\PG=C*V
 Normal termination of Gaussian 16 at Mon Feb 26 11:07:18 2018.
