 Gaussian 16, Revision A.03,
 Gaussian 16:  ES64L-G16RevA.03 25-Dec-2016

 ----------------------------------------------------------------------
 #P ROCCSD(T)=(maxcyc=150, Full, SaveAmplitudes, ReadAmplitudes)/Gen 5d
  7f SCF=(maxcycles=300) Integral(NoXCTest) MaxDisk=500GB Pop=Regular P
 seudo=Read Guess=Read
 ----------------------------------------------------------------------

 ---
 ScO
 ---
 Symbolic Z-matrix:
 Charge =  0 Multiplicity = 2

                         Standard orientation:
 ---------------------------------------------------------------------
 Center     Atomic      Atomic             Coordinates (Angstroms)
 Number     Number       Type             X           Y           Z
 ---------------------------------------------------------------------
      1         21           0        0.000000    0.000000    0.413793
      2          8           0        0.000000    0.000000   -1.086207
 ---------------------------------------------------------------------

 SCF Done:  E(ROHF) =  -62.0535239461     A.U. after   16 cycles
 E2 =    -0.7158977171D+00 EUMP2 =    -0.62769421663172D+02
 CCSD(T)
 CCSD(T)= -0.62793504329D+02

 The electronic state is 2-SG.
 Alpha  occ. eigenvalues --   -2.66229  -1.67205  -1.57141  -1.57141  -1.09964
 Alpha  occ. eigenvalues --   -0.47786  -0.47786  -0.44780  -0.22601
 Alpha virt. eigenvalues --    0.00570   0.00570   0.01779   0.02092   0.02763
 Alpha virt. eigenvalues --    0.02763   0.02994   0.02994   0.03113   0.03641
 Alpha virt. eigenvalues --    0.03641   0.05717   0.07635   0.07635   0.09254

 Mulliken charges and spin densities:
               1          2
     1  Sc   1.229669   0.999478
     2  O   -1.229669   0.000522
 Sum of Mulliken charges =  -0.00000   1.00000

 Dipole moment (field-independent basis, Debye):
    X=              0.0000    Y=              0.0000    Z=              2.7729  Tot=              2.7729
 Quadrupole moment (field-independent basis, Debye-Ang):
   XX=            -21.9554   YY=            -21.9554   ZZ=            -31.0722
   XY=              0.0000   XZ=              0.0000   YZ=              0.0000

 \\#P ROCCSD(T)=(maxcyc=150, Full, SaveAmplitudes, ReadAmplitudes)/Gen
 535239\PMP2-0=-62.7694217\CCSD=-62.7563617\CCSD(T)=-62.7935043\RMSD=1.
 Normal termination of Gaussian 16 at Wed Feb 28 20:11:50 2018.
