 Gaussian 16, Revision A.03,
 Gaussian 16:  ES64L-G16RevA.03 25-Dec-2016

 ----------------------------------------------------------------------
 #P ROCCSD(T)=(maxcyc=150, Full)/Gen 5d 7f SCF=(maxcycles=300) Integral
 (NoXCTest) MaxDisk=500GB Pop=Regular Pseudo=Read Guess=Read
 ----------------------------------------------------------------------

 ---
 ScH
 ---
 Symbolic Z-matrix:
 Charge =  0 Multiplicity = 1

                         Standard orientation:
 ---------------------------------------------------------------------
 Center     Atomic      Atomic             Coordinates (Angstroms)
 Number     Number       Type             X           Y           Z
 ---------------------------------------------------------------------
      1         21           0        0.000000    0.000000    0.054545
      2          1           0        0.000000    0.000000   -1.145455
 ---------------------------------------------------------------------

 SCF Done:  E(ROHF) =  -46.5453631538     A.U. after   12 cycles
 E2 =    -0.4334635499D+00 EUMP2 =    -0.46978826703679D+02
 CCSD(T)
 CCSD(T)= -0.47016455034D+02

 The electronic state is 1-SG.
 Alpha  occ. eigenvalues --   -2.61422  -1.63604  -1.59002  -1.59002  -0.46936
 Alpha  occ. eigenvalues --   -0.21450
 Alpha virt. eigenvalues --    0.01317   0.01317   0.01381   0.01989   0.02884
 Alpha virt. eigenvalues --    0.02884   0.02899   0.02904   0.02904   0.04317
 Alpha virt. eigenvalues --    0.04459   0.04459   0.08059   0.08250   0.08250

 Mulliken charges and spin densities:
               1          2
     1  Sc   0.199410   0.000000
     2  H   -0.199410   0.000000
 Sum of Mulliken charges =   0.00000   0.00000

 Dipole moment (field-independent basis, Debye):
    X=              0.0000    Y=              0.0000    Z=              0.7760  Tot=              0.7760
 Quadrupole moment (field-independent basis, Debye-Ang):
   XX=            -23.6618   YY=            -23.6618   ZZ=            -22.5575
   XY=              0.0000   XZ=              0.0000   YZ=              0.0000

 P ROCCSD(T)=(maxcyc=150, Full)/Gen 5d 7f SCF=(maxcycles=300) Integral(
 788267\MP4SDQ=-46.9984471\CCSD=-46.997984\CCSD(T)=-47.016455\RMSD=3.32
 Normal termination of Gaussian 16 at Mon Feb 12 18:43:38 2018.
