 Gaussian 16, Revision A.03,
 Gaussian 16:  ES64L-G16RevA.03 25-Dec-2016

 ----------------------------------------------------------------------
 #P ROCCSD(T)=(maxcyc=150, Full)/Gen 5d 7f SCF=(maxcycles=300, NoVarAcc
 , VShift=300) MaxDisk=100GB Pop=Regular Pseudo=Read Guess=Read IOp(5/1
 5=2)
 ----------------------------------------------------------------------

 --
 Mn
 --
 Symbolic Z-matrix:
 Charge =  0 Multiplicity = 6

                         Standard orientation:
 ---------------------------------------------------------------------
 Center     Atomic      Atomic             Coordinates (Angstroms)
 Number     Number       Type             X           Y           Z
 ---------------------------------------------------------------------
      1         25           0        0.000000    0.000000    0.000000
 ---------------------------------------------------------------------

 SCF Done:  E(ROHF) =  -103.244181374     A.U. after   19 cycles
 E2 =    -0.5981572476D+00 EUMP2 =    -0.10384233862175D+03
 CCSD(T)
 CCSD(T)= -0.10386206239D+03

 The electronic state is 6-A1G.
 Alpha  occ. eigenvalues --   -4.13750  -2.75773  -2.75773  -2.75773  -0.62915
 Alpha  occ. eigenvalues --   -0.62915  -0.62915  -0.62915  -0.62915  -0.26840
 Alpha virt. eigenvalues --    0.01752   0.01752   0.01752   0.02541   0.05860
 Alpha virt. eigenvalues --    0.05860   0.05860   0.06096   0.06096   0.06096
 Alpha virt. eigenvalues --    0.06096   0.06096   0.13379   0.19365   0.19365

 Mulliken charges and spin densities:
               1          2
     1  Mn  -0.000000   5.000000
 Sum of Mulliken charges =  -0.00000   5.00000

 Dipole moment (field-independent basis, Debye):
    X=              0.0000    Y=              0.0000    Z=              0.0000  Tot=              0.0000
 Quadrupole moment (field-independent basis, Debye-Ang):
   XX=            -18.8326   YY=            -18.8326   ZZ=            -18.8326
   XY=              0.0000   XZ=              0.0000   YZ=             -0.0000

 1\1\GINC-C506-044\SP\ROCCSD(T)-Full\Gen\Mn1(6)\AANNABE\04-May-2018\0\\
 #P ROCCSD(T)=(maxcyc=150, Full)/Gen 5d 7f SCF=(maxcycles=300, NoVarAcc
 , VShift=300) MaxDisk=100GB Pop=Regular Pseudo=Read Guess=Read IOp(5/1
 5=2)\\Mn\\0,6\Mn,0,0.,0.,0.\\Version=ES64L-G16RevA.03\State=6-A1G\HF=-
 103.2441814\MP2=-103.8423386\MP3=-103.8407223\PUHF=-103.2441814\PMP2-0
 =-103.8423386\MP4SDQ=-103.8434017\CCSD=-103.8434818\CCSD(T)=-103.86206
 24\RMSD=9.082e-09\PG=OH [O(Mn1)]\\@

 Normal termination of Gaussian 16 at Fri May  4 14:37:29 2018.
