 Gaussian 16, Revision A.03,
 Gaussian 16:  ES64L-G16RevA.03 25-Dec-2016

 ----------------------------------------------------------------------
 #P ROCCSD(T)=(maxcyc=150, Full, SaveAmplitudes, ReadAmplitudes)/Gen 5d
  7f SCF=(maxcycles=300) Integral(NoXCTest, DKHSO) MaxDisk=500GB Pop=Re
 gular Guess=Read
 ----------------------------------------------------------------------

 ---
 MnO
 ---
 Symbolic Z-matrix:
 Charge =  0 Multiplicity = 6

                         Standard orientation:
 ---------------------------------------------------------------------
 Center     Atomic      Atomic             Coordinates (Angstroms)
 Number     Number       Type             X           Y           Z
 ---------------------------------------------------------------------
      1         25           0        0.000000    0.000000    0.412121
      2          8           0        0.000000    0.000000   -1.287879
 ---------------------------------------------------------------------

 SCF Done:  E(ROHF) =  -1232.22751699     A.U. after   23 cycles
 E2 =    -0.1401087528D+01 EUMP2 =    -0.12336286045162D+04
 CCSD(T)
 CCSD(T)= -0.12336422726D+04

 The electronic state is 6-SG.
 Alpha  occ. eigenvalues -- -242.50177 -29.60301 -24.95948 -24.95948 -24.95317
 Alpha  occ. eigenvalues --  -20.44196  -4.08310  -2.73736  -2.73736  -2.73065
 Alpha  occ. eigenvalues --   -1.10661  -0.64253  -0.64253  -0.63464  -0.63464
 Alpha  occ. eigenvalues --   -0.59212  -0.33919  -0.33919  -0.33839
 Alpha virt. eigenvalues --   -0.04518   0.01341   0.01341   0.01621   0.03380
 Alpha virt. eigenvalues --    0.05761   0.05761   0.05868   0.05868   0.06357
 Alpha virt. eigenvalues --    0.07069   0.07069   0.11404   0.12691   0.17848

 Mulliken charges and spin densities:
               1          2
     1  Mn   1.160621   4.906008
     2  O   -1.160621   0.093992
 Sum of Mulliken charges =  -0.00000   5.00000

 Dipole moment (field-independent basis, Debye):
    X=              0.0000    Y=             -0.0000    Z=              9.0771  Tot=              9.0771
 Quadrupole moment (field-independent basis, Debye-Ang):
   XX=            -19.2013   YY=            -19.2013   ZZ=            -24.1332
   XY=              0.0000   XZ=              0.0000   YZ=             -0.0000

 \\#P ROCCSD(T)=(maxcyc=150, Full, SaveAmplitudes, ReadAmplitudes)/Gen
 27517\PMP2-0=-1233.6286045\CCSD=-1233.597028\CCSD(T)=-1233.6422726\RMS
 Normal termination of Gaussian 16 at Wed Mar  7 06:26:59 2018.
