 Gaussian 16, Revision A.03,
 Gaussian 16:  ES64L-G16RevA.03 25-Dec-2016

 ----------------------------------------------------------------------
 #P ROCCSD(T)=(maxcyc=150, Window=(6,0), ReadAmplitudes)/Gen 5d 7f SCF=
 (maxcycles=300) Integral(NoXCTest, DKHSO) MaxDisk=500GB Pop=Regular Gu
 ess=Read
 ----------------------------------------------------------------------

 ---
 CrH
 ---
 Symbolic Z-matrix:
 Charge =  0 Multiplicity = 6

                         Standard orientation:
 ---------------------------------------------------------------------
 Center     Atomic      Atomic             Coordinates (Angstroms)
 Number     Number       Type             X           Y           Z
 ---------------------------------------------------------------------
      1         24           0        0.000000    0.000000    0.076000
      2          1           0        0.000000    0.000000   -1.824000
 ---------------------------------------------------------------------

 SCF Done:  E(ROHF) =  -1050.20119627     A.U. after   19 cycles
 E2 =    -0.5428723094D+00 EUMP2 =    -0.10507440685832D+04
 CCSD(T)
 CCSD(T)= -0.10507436132D+04

 The electronic state is 6-SG.
 Alpha  occ. eigenvalues -- -222.22544 -26.81860 -22.45261 -22.45261 -22.45244
 Alpha  occ. eigenvalues --   -3.69065  -2.44517  -2.44517  -2.40228  -0.56693
 Alpha  occ. eigenvalues --   -0.56693  -0.53313  -0.53313  -0.38764  -0.26521
 Alpha virt. eigenvalues --    0.01054   0.01054   0.01805   0.02325   0.04325
 Alpha virt. eigenvalues --    0.04647   0.04647   0.04900   0.04900   0.05225
 Alpha virt. eigenvalues --    0.05225   0.06398   0.08575   0.11160   0.15190

 Mulliken charges and spin densities:
               1          2
     1  Cr   0.350430   4.970158
     2  H   -0.350430   0.029842
 Sum of Mulliken charges =  -0.00000   5.00000

 Dipole moment (field-independent basis, Debye):
    X=             -0.0000    Y=             -0.0000    Z=              2.6367  Tot=              2.6367
 Quadrupole moment (field-independent basis, Debye-Ang):
   XX=            -17.4653   YY=            -17.4653   ZZ=            -26.3961
   XY=              0.0000   XZ=             -0.0000   YZ=             -0.0000

 1\1\GINC-C505-052\SP\ROCCSD(T)-RW\Gen\Cr1H1(6)\AANNABE\26-Feb-2018\0\\
 #P ROCCSD(T)=(maxcyc=150, Window=(6,0), ReadAmplitudes)/Gen 5d 7f SCF=
 (maxcycles=300) Integral(NoXCTest, DKHSO) MaxDisk=500GB Pop=Regular Gu
 ess=Read\\CrH\\0,6\Cr,0,0.,0.,0.\H,0,0.,0.,1.9\\Version=ES64L-G16RevA.
 03\State=6-SG\HF=-1050.2011963\MP2=-1050.7440686\PUHF=-1050.2011963\PM
 P2-0=-1050.7440686\CCSD=-1050.7330554\CCSD(T)=-1050.7436132\RMSD=1.869
 e-09\PG=C*V [C*(H1Cr1)]\\@

 Normal termination of Gaussian 16 at Mon Feb 26 05:36:56 2018.
