 Gaussian 16, Revision A.03,
 Gaussian 16:  ES64L-G16RevA.03 25-Dec-2016

 ----------------------------------------------------------------------
 #P ROCCSD(T)=(maxcyc=150, Full, SaveAmplitudes, ReadAmplitudes)/Gen 5d
  7f SCF=(maxcycles=300) Integral(NoXCTest) MaxDisk=500GB Pop=Regular P
 seudo=Read Guess=Read
 ----------------------------------------------------------------------

 ---
 ScO
 ---
 Symbolic Z-matrix:
 Charge =  0 Multiplicity = 2

                         Standard orientation:
 ---------------------------------------------------------------------
 Center     Atomic      Atomic             Coordinates (Angstroms)
 Number     Number       Type             X           Y           Z
 ---------------------------------------------------------------------
      1         21           0        0.000000    0.000000    0.441379
      2          8           0        0.000000    0.000000   -1.158621
 ---------------------------------------------------------------------

 SCF Done:  E(ROHF) =  -61.8711240084     A.U. after   18 cycles
 E2 =    -0.7073369898D+00 EUMP2 =    -0.62578460998196D+02
 CCSD(T)
 CCSD(T)= -0.62603869251D+02

 The electronic state is 2-SG.
 Alpha  occ. eigenvalues --   -2.63576  -1.67007  -1.60989  -1.60989  -1.12546
 Alpha  occ. eigenvalues --   -0.44264  -0.44264  -0.43898  -0.23893
 Alpha virt. eigenvalues --    0.00300   0.00300   0.01546   0.02091   0.02735
 Alpha virt. eigenvalues --    0.02735   0.03027   0.03027   0.03272   0.03399
 Alpha virt. eigenvalues --    0.03399   0.05180   0.07250   0.07250   0.09309

 Mulliken charges and spin densities:
               1          2
     1  Sc   1.287542   0.996471
     2  O   -1.287542   0.003529
 Sum of Mulliken charges =  -0.00000   1.00000

 Dipole moment (field-independent basis, Debye):
    X=              0.0000    Y=              0.0000    Z=              3.8308  Tot=              3.8308
 Quadrupole moment (field-independent basis, Debye-Ang):
   XX=            -21.9487   YY=            -21.9487   ZZ=            -31.8308
   XY=              0.0000   XZ=              0.0000   YZ=              0.0000

 \\#P ROCCSD(T)=(maxcyc=150, Full, SaveAmplitudes, ReadAmplitudes)/Gen
 367\CCSD(T)=-62.6038693\RMSD=4.463e-09\PG=C*V [C*(O1Sc1)]\\@
 Normal termination of Gaussian 16 at Wed Feb 21 03:21:43 2018.
