 Gaussian 16, Revision A.03,
 Gaussian 16:  ES64L-G16RevA.03 25-Dec-2016

 ----------------------------------------------------------------------
 #P ROCCSD(T)=(MaxCyc=150, FrzINGC)/Gen SCF=(maxcycle=400, vshift=200)
 Integral(DKHSO, NoXCTest) Pop=Regular MaxDisk=500GB Guess=Read
 ----------------------------------------------------------------------

 ---
 CuH
 ---
 Symbolic Z-matrix:
 Charge =  0 Multiplicity = 1

                         Standard orientation:
 ---------------------------------------------------------------------
 Center     Atomic      Atomic             Coordinates (Angstroms)
 Number     Number       Type             X           Y           Z
 ---------------------------------------------------------------------
      1         29           0        0.000000    0.000000    0.050000
      2          1           0        0.000000    0.000000   -1.450000
 ---------------------------------------------------------------------

 SCF Done:  E(ROHF) =  -1653.71609521     A.U. after   17 cycles
 E2 =    -0.1160074090D+01 EUMP2 =    -0.16548761693025D+04
 CCSD(T)
 CCSD(T)= -0.16547764411D+04

 The electronic state is 1-SG.
 Alpha  occ. eigenvalues -- -332.50546 -41.67997 -35.81996 -35.81996 -35.81865
 Alpha  occ. eigenvalues --   -5.17405  -3.38173  -3.37746  -3.37746  -0.50480
 Alpha  occ. eigenvalues --   -0.49813  -0.49813  -0.49608  -0.49608  -0.34026
 Alpha virt. eigenvalues --    0.00061   0.02558   0.02558   0.02972   0.04284
 Alpha virt. eigenvalues --    0.07721   0.08617   0.08617   0.12119   0.12119
 Alpha virt. eigenvalues --    0.12138   0.12475   0.12475   0.15197   0.18596

 Mulliken charges and spin densities:
               1          2
     1  Cu   0.306731   0.000000
     2  H   -0.306731   0.000000
 Sum of Mulliken charges =  -0.00000   0.00000

 Dipole moment (field-independent basis, Debye):
    X=             -0.0000    Y=             -0.0000    Z=              3.9561  Tot=              3.9561
 Quadrupole moment (field-independent basis, Debye-Ang):
   XX=            -13.8533   YY=            -13.8533   ZZ=            -16.2128
   XY=             -0.0000   XZ=              0.0000   YZ=              0.0000

  ROCCSD(T)=(MaxCyc=150, FrzINGC)/Gen SCF=(maxcycle=400, vshift=200) In
 2-0=-1654.8761693\MP4SDQ=-1654.8213966\CCSD=-1654.7371695\CCSD(T)=-165
 Normal termination of Gaussian 16 at Thu Apr  5 09:20:25 2018.
