 Gaussian 16, Revision A.03,
 Gaussian 16:  ES64L-G16RevA.03 25-Dec-2016

 ----------------------------------------------------------------------
 #P ROCCSD(T)=(MaxCyc=150, FrzINGC)/Gen SCF=(maxcycle=400, vshift=200)
 Integral(DKHSO, NoXCTest) Pop=Regular MaxDisk=500GB Guess=Read IOp(5/1
 5=2)
 ----------------------------------------------------------------------

 ---
 CuH
 ---
 Symbolic Z-matrix:
 Charge =  0 Multiplicity = 1

                         Standard orientation:
 ---------------------------------------------------------------------
 Center     Atomic      Atomic             Coordinates (Angstroms)
 Number     Number       Type             X           Y           Z
 ---------------------------------------------------------------------
      1         29           0        0.000000    0.000000    0.050000
      2          1           0        0.000000    0.000000   -1.450000
 ---------------------------------------------------------------------

 SCF Done:  E(ROHF) =  -1653.71582217     A.U. after   11 cycles
 E2 =    -0.1135486815D+01 EUMP2 =    -0.16548513089855D+04
 CCSD(T)
 CCSD(T)= -0.16547536683D+04

 The electronic state is 1-SG.
 Alpha  occ. eigenvalues -- -332.50538 -41.67994 -35.81995 -35.81995 -35.81863
 Alpha  occ. eigenvalues --   -5.17404  -3.38172  -3.37745  -3.37745  -0.50480
 Alpha  occ. eigenvalues --   -0.49811  -0.49811  -0.49607  -0.49607  -0.34024
 Alpha virt. eigenvalues --    0.00128   0.02643   0.02643   0.03251   0.05042
 Alpha virt. eigenvalues --    0.08940   0.08984   0.08984   0.13462   0.13514
 Alpha virt. eigenvalues --    0.13514   0.13893   0.13893   0.19934   0.22177

 Mulliken charges and spin densities:
               1          2
     1  Cu   0.343160  -0.000000
     2  H   -0.343160  -0.000000
 Sum of Mulliken charges =  -0.00000  -0.00000

 Dipole moment (field-independent basis, Debye):
    X=              0.0000    Y=             -0.0000    Z=              3.9577  Tot=              3.9577
 Quadrupole moment (field-independent basis, Debye-Ang):
   XX=            -13.8549   YY=            -13.8549   ZZ=            -16.2100
   XY=              0.0000   XZ=              0.0000   YZ=             -0.0000

  ROCCSD(T)=(MaxCyc=150, FrzINGC)/Gen SCF=(maxcycle=400, vshift=200) In
 Normal termination of Gaussian 16 at Wed Apr  4 20:25:32 2018.
