 Gaussian 16, Revision A.03,
 Gaussian 16:  ES64L-G16RevA.03 25-Dec-2016

 ----------------------------------------------------------------------
 #P ROCCSD(T)=(maxcyc=150, Full)/Gen 5d 7f SCF=(maxcycles=300) Integral
 (NoXCTest) MaxDisk=500GB Pop=Regular Pseudo=Read IOp(5/15=2) Guess=Rea
 d
 ----------------------------------------------------------------------

 ---
 ScH
 ---
 Symbolic Z-matrix:
 Charge =  0 Multiplicity = 1

                         Standard orientation:
 ---------------------------------------------------------------------
 Center     Atomic      Atomic             Coordinates (Angstroms)
 Number     Number       Type             X           Y           Z
 ---------------------------------------------------------------------
      1         21           0        0.000000    0.000000    0.081818
      2          1           0        0.000000    0.000000   -1.718182
 ---------------------------------------------------------------------

 SCF Done:  E(ROHF) =  -46.7968705278     A.U. after   11 cycles
 E2 =    -0.4066601493D+00 EUMP2 =    -0.47203530677107D+02
 CCSD(T)
 CCSD(T)= -0.47248748385D+02

 The electronic state is 1-SG.
 Alpha  occ. eigenvalues --   -2.73159  -1.66586  -1.66586  -1.66555  -0.40482
 Alpha  occ. eigenvalues --   -0.23364
 Alpha virt. eigenvalues --    0.01172   0.01172   0.01574   0.02203   0.03559
 Alpha virt. eigenvalues --    0.03839   0.03839   0.03930   0.03930   0.04553
 Alpha virt. eigenvalues --    0.04553   0.04785   0.08358   0.08358   0.09156

 Mulliken charges and spin densities:
               1          2
     1  Sc   0.348062   0.000000
     2  H   -0.348062   0.000000
 Sum of Mulliken charges =   0.00000   0.00000

 Dipole moment (field-independent basis, Debye):
    X=              0.0000    Y=              0.0000    Z=              1.4947  Tot=              1.4947
 Quadrupole moment (field-independent basis, Debye-Ang):
   XX=            -22.8933   YY=            -22.8933   ZZ=            -26.7152
   XY=              0.0000   XZ=              0.0000   YZ=              0.0000

 P ROCCSD(T)=(maxcyc=150, Full)/Gen 5d 7f SCF=(maxcycles=300) Integral(
 PMP2-0=-47.2035307\MP4SDQ=-47.2306142\CCSD=-47.2304361\CCSD(T)=-47.248
 Normal termination of Gaussian 16 at Wed Feb 14 05:09:20 2018.
