 Gaussian 16, Revision A.03,
 Gaussian 16:  ES64L-G16RevA.03 25-Dec-2016

 ----------------------------------------------------------------------
 #P ROCCSD(T)=(maxcyc=150, Full, SaveAmplitudes, ReadAmplitudes)/Gen 5d
  7f SCF=(maxcycles=300) Integral(NoXCTest) MaxDisk=500GB Pop=Regular P
 seudo=Read Guess=Read
 ----------------------------------------------------------------------

 ---
 ScO
 ---
 Symbolic Z-matrix:
 Charge =  0 Multiplicity = 2

                         Standard orientation:
 ---------------------------------------------------------------------
 Center     Atomic      Atomic             Coordinates (Angstroms)
 Number     Number       Type             X           Y           Z
 ---------------------------------------------------------------------
      1         21           0        0.000000    0.000000    0.331034
      2          8           0        0.000000    0.000000   -0.868966
 ---------------------------------------------------------------------

 SCF Done:  E(ROHF) =  -61.7512072218     A.U. after   16 cycles
 E2 =    -0.6933433766D+00 EUMP2 =    -0.62444550598309D+02
 CCSD(T)
 CCSD(T)= -0.62472632938D+02

 The electronic state is 2-SG.
 Alpha  occ. eigenvalues --   -2.65828  -1.80686  -1.51187  -1.51187  -1.03591
 Alpha  occ. eigenvalues --   -0.63485  -0.63485  -0.47345  -0.17939
 Alpha virt. eigenvalues --    0.00990   0.00990   0.01650   0.02533   0.02824
 Alpha virt. eigenvalues --    0.02824   0.02860   0.02860   0.02886   0.04333
 Alpha virt. eigenvalues --    0.04333   0.06520   0.08159   0.08159   0.08387

 Mulliken charges and spin densities:
               1          2
     1  Sc   0.819747   1.025558
     2  O   -0.819747  -0.025558
 Sum of Mulliken charges =  -0.00000   1.00000

 Dipole moment (field-independent basis, Debye):
    X=              0.0000    Y=              0.0000    Z=             -1.1937  Tot=              1.1937
 Quadrupole moment (field-independent basis, Debye-Ang):
   XX=            -23.4101   YY=            -23.4101   ZZ=            -28.9973
   XY=              0.0000   XZ=              0.0000   YZ=              0.0000

 \\#P ROCCSD(T)=(maxcyc=150, Full, SaveAmplitudes, ReadAmplitudes)/Gen
 512072\PMP2-0=-62.4445506\CCSD=-62.4433994\CCSD(T)=-62.4726329\RMSD=2.
 Normal termination of Gaussian 16 at Wed Feb 28 20:08:00 2018.
