 Gaussian 16, Revision A.03,
 Gaussian 16:  ES64L-G16RevA.03 25-Dec-2016

 ----------------------------------------------------------------------
 #P ROCCSD(T)=(maxcyc=150, Full)/Gen 5d 7f SCF=(maxcycles=300) Integral
 (NoXCTest) MaxDisk=500GB Pop=Regular Pseudo=Read
 ----------------------------------------------------------------------

 ---
 ScH
 ---
 Symbolic Z-matrix:
 Charge =  0 Multiplicity = 1

                         Standard orientation:
 ---------------------------------------------------------------------
 Center     Atomic      Atomic             Coordinates (Angstroms)
 Number     Number       Type             X           Y           Z
 ---------------------------------------------------------------------
      1         21           0        0.000000    0.000000    0.081818
      2          1           0        0.000000    0.000000   -1.718182
 ---------------------------------------------------------------------

 SCF Done:  E(ROHF) =  -46.6615023382     A.U. after   12 cycles
 E2 =    -0.4071374102D+00 EUMP2 =    -0.47068639748407D+02
 CCSD(T)
 CCSD(T)= -0.47114248522D+02

 The electronic state is 1-SG.
 Alpha  occ. eigenvalues --   -2.68883  -1.66600  -1.66600  -1.66572  -0.40468
 Alpha  occ. eigenvalues --   -0.23243
 Alpha virt. eigenvalues --    0.01147   0.01147   0.01540   0.02210   0.03555
 Alpha virt. eigenvalues --    0.03836   0.03836   0.03927   0.03927   0.04525
 Alpha virt. eigenvalues --    0.04525   0.04718   0.08279   0.08279   0.09095

 Mulliken charges and spin densities:
               1          2
     1  Sc   0.351050   0.000000
     2  H   -0.351050   0.000000
 Sum of Mulliken charges =  -0.00000   0.00000

 Dipole moment (field-independent basis, Debye):
    X=              0.0000    Y=              0.0000    Z=              1.5082  Tot=              1.5082
 Quadrupole moment (field-independent basis, Debye-Ang):
   XX=            -23.0471   YY=            -23.0471   ZZ=            -26.7831
   XY=              0.0000   XZ=              0.0000   YZ=              0.0000

 P ROCCSD(T)=(maxcyc=150, Full)/Gen 5d 7f SCF=(maxcycles=300) Integral(
 DQ=-47.0960141\CCSD=-47.0958048\CCSD(T)=-47.1142485\RMSD=6.871e-09\PG=
 Normal termination of Gaussian 16 at Tue Feb 13 04:26:48 2018.
