 Gaussian 16, Revision A.03,
 Gaussian 16:  ES64L-G16RevA.03 25-Dec-2016

 ----------------------------------------------------------------------
 #P ROCCSD(T)=(maxcyc=150, Full, SaveAmplitudes, ReadAmplitudes)/Gen 5d
  7f SCF=(maxcycles=300) Integral(NoXCTest) MaxDisk=500GB Pop=Regular P
 seudo=Read Guess=Read IOp(5/15=2)
 ----------------------------------------------------------------------

 ---
 ScO
 ---
 Symbolic Z-matrix:
 Charge =  0 Multiplicity = 2

                         Standard orientation:
 ---------------------------------------------------------------------
 Center     Atomic      Atomic             Coordinates (Angstroms)
 Number     Number       Type             X           Y           Z
 ---------------------------------------------------------------------
      1         21           0        0.000000    0.000000    0.331034
      2          8           0        0.000000    0.000000   -0.868966
 ---------------------------------------------------------------------

 SCF Done:  E(ROHF) =  -61.5549233592     A.U. after   18 cycles
 E2 =    -0.6501475294D+00 EUMP2 =    -0.62205070888569D+02
 CCSD(T)
 CCSD(T)= -0.62235649708D+02

 The electronic state is 2-SG.
 Alpha  occ. eigenvalues --   -2.61917  -1.82470  -1.52469  -1.52469  -1.04506
 Alpha  occ. eigenvalues --   -0.63882  -0.63882  -0.47750  -0.17847
 Alpha virt. eigenvalues --    0.01030   0.01030   0.01781   0.02778   0.03767
 Alpha virt. eigenvalues --    0.03767   0.03800   0.03800   0.03863   0.04921
 Alpha virt. eigenvalues --    0.04921   0.07194   0.11094   0.11094   0.11188

 Mulliken charges and spin densities:
               1          2
     1  Sc   1.136389   1.032710
     2  O   -1.136389  -0.032710
 Sum of Mulliken charges =  -0.00000   1.00000

 Dipole moment (field-independent basis, Debye):
    X=              0.0000    Y=              0.0000    Z=             -1.2292  Tot=              1.2292
 Quadrupole moment (field-independent basis, Debye-Ang):
   XX=            -23.5805   YY=            -23.5805   ZZ=            -29.0522
   XY=              0.0000   XZ=              0.0000   YZ=              0.0000

 \\#P ROCCSD(T)=(maxcyc=150, Full, SaveAmplitudes, ReadAmplitudes)/Gen
 6\CCSD=-62.208609\CCSD(T)=-62.2356497\RMSD=4.975e-09\PG=C*V [C*(O1Sc1)
 Normal termination of Gaussian 16 at Tue Feb 20 21:15:25 2018.
