 Gaussian 16, Revision A.03,
 Gaussian 16:  ES64L-G16RevA.03 25-Dec-2016

 ----------------------------------------------------------------------
 #P ROCCSD(T)=(maxcyc=150, Full, SaveAmplitudes, ReadAmplitudes)/Gen 5d
  7f SCF=(maxcycles=300) Integral(NoXCTest, DKHSO) MaxDisk=500GB Pop=Re
 gular Guess=Read IOp(5/15=2)
 ----------------------------------------------------------------------

 ---
 TiO
 ---
 Symbolic Z-matrix:
 Charge =  0 Multiplicity = 3

                         Standard orientation:
 ---------------------------------------------------------------------
 Center     Atomic      Atomic             Coordinates (Angstroms)
 Number     Number       Type             X           Y           Z
 ---------------------------------------------------------------------
      1         22           0        0.000000    0.000000    0.320000
      2          8           0        0.000000    0.000000   -0.880000
 ---------------------------------------------------------------------

 SCF Done:  E(ROHF) =  -927.430499884     A.U. after   23 cycles
 E2 =    -0.1140817441D+01 EUMP2 =    -0.92857131732481D+03
 CCSD(T)
 CCSD(T)= -0.92858770185D+03

 Unable to determine electronic state:  an orbital has unidentified symmetry.
 Alpha  occ. eigenvalues -- -184.30515 -21.55106 -20.61395 -17.71929 -17.71929
 Alpha  occ. eigenvalues --  -17.71834  -2.92726  -2.00091  -1.79194  -1.79194
 Alpha  occ. eigenvalues --   -1.10842  -0.65597  -0.65597  -0.54453  -0.32412
 Alpha  occ. eigenvalues --   -0.20032
 Alpha virt. eigenvalues --    0.01277   0.01277   0.02096   0.02807   0.04923
 Alpha virt. eigenvalues --    0.04923   0.05031   0.05201   0.05367   0.05758
 Alpha virt. eigenvalues --    0.05758   0.08507   0.12375   0.14328   0.14855

 Mulliken charges and spin densities:
               1          2
     1  Ti   0.587913   2.064175
     2  O   -0.587913  -0.064175
 Sum of Mulliken charges =   0.00000   2.00000

 Dipole moment (field-independent basis, Debye):
    X=              0.0000    Y=              0.0000    Z=             -0.6966  Tot=              0.6966
 Quadrupole moment (field-independent basis, Debye-Ang):
   XX=            -22.9567   YY=            -22.9567   ZZ=            -26.9145
   XY=              0.0000   XZ=              0.0000   YZ=              0.0000

 \\#P ROCCSD(T)=(maxcyc=150, Full, SaveAmplitudes, ReadAmplitudes)/Gen
 28.5552526\CCSD(T)=-928.5877019\RMSD=3.865e-09\PG=C*V [C*(O1Ti1)]\\@
 Normal termination of Gaussian 16 at Tue Mar  6 20:57:00 2018.
