 Gaussian 16, Revision A.03,
 Gaussian 16:  ES64L-G16RevA.03 25-Dec-2016

 ----------------------------------------------------------------------
 #P ROCCSD(T)=(maxcyc=150, Full, SaveAmplitudes, ReadAmplitudes)/Gen 5d
  7f SCF=(maxcycles=300) Integral(NoXCTest) MaxDisk=500GB Pop=Regular P
 seudo=Read Guess=Read
 ----------------------------------------------------------------------

 ---
 MnO
 ---
 Symbolic Z-matrix:
 Charge =  0 Multiplicity = 6

                         Standard orientation:
 ---------------------------------------------------------------------
 Center     Atomic      Atomic             Coordinates (Angstroms)
 Number     Number       Type             X           Y           Z
 ---------------------------------------------------------------------
      1         25           0        0.000000    0.000000    0.339394
      2          8           0        0.000000    0.000000   -1.060606
 ---------------------------------------------------------------------

 SCF Done:  E(ROHF) =  -119.287432650     A.U. after   20 cycles
 E2 =    -0.9837265321D+00 EUMP2 =    -0.12027115918177D+03
 CCSD(T)
 CCSD(T)= -0.12028225254D+03

 The electronic state is 6-SG.
 Alpha  occ. eigenvalues --   -4.09174  -2.75327  -2.75327  -2.72980  -1.24415
 Alpha  occ. eigenvalues --   -0.70523  -0.70523  -0.63320  -0.63320  -0.55762
 Alpha  occ. eigenvalues --   -0.41166  -0.41166  -0.31891
 Alpha virt. eigenvalues --    0.01096   0.01978   0.01978   0.03065   0.04686
 Alpha virt. eigenvalues --    0.05905   0.05905   0.05930   0.05930   0.06584
 Alpha virt. eigenvalues --    0.07132   0.07132   0.11535   0.14119   0.17773

 Mulliken charges and spin densities:
               1          2
     1  Mn   1.110748   4.787519
     2  O   -1.110748   0.212481
 Sum of Mulliken charges =  -0.00000   5.00000

 Dipole moment (field-independent basis, Debye):
    X=              0.0000    Y=              0.0000    Z=              4.2191  Tot=              4.2191
 Quadrupole moment (field-independent basis, Debye-Ang):
   XX=            -19.5952   YY=            -19.5952   ZZ=            -23.1521
   XY=              0.0000   XZ=              0.0000   YZ=              0.0000

 \\#P ROCCSD(T)=(maxcyc=150, Full, SaveAmplitudes, ReadAmplitudes)/Gen
 9.2874326\PMP2-0=-120.2711592\CCSD=-120.2384744\CCSD(T)=-120.2822525\R
 Normal termination of Gaussian 16 at Tue Mar 13 14:09:40 2018.
