 Gaussian 16, Revision A.03,
 Gaussian 16:  ES64L-G16RevA.03 25-Dec-2016

 ----------------------------------------------------------------------
 #P ROCCSD(T)=(maxcyc=150, Full, SaveAmplitudes, ReadAmplitudes)/Gen 5d
  7f SCF=(maxcycles=300, VShift=400) Integral(NoXCTest) MaxDisk=500GB P
 op=Full Pseudo=Read Guess=Read IOp(5/15=2)
 ----------------------------------------------------------------------

 ---
 MnO
 ---
 Symbolic Z-matrix:
 Charge =  0 Multiplicity = 6

                         Standard orientation:
 ---------------------------------------------------------------------
 Center     Atomic      Atomic             Coordinates (Angstroms)
 Number     Number       Type             X           Y           Z
 ---------------------------------------------------------------------
      1         25           0        0.000000    0.000000    0.363636
      2          8           0        0.000000    0.000000   -1.136364
 ---------------------------------------------------------------------

 SCF Done:  E(ROHF) =  -118.874442585     A.U. after   73 cycles
 E2 =    -0.9293900215D+00 EUMP2 =    -0.11980383260657D+03
 CCSD(T)
 CCSD(T)= -0.11981768489D+03

 The electronic state is 6-SG.
 Alpha  occ. eigenvalues --   -4.14087  -2.76058  -2.76058  -2.73726  -1.19787
 Alpha  occ. eigenvalues --   -0.68018  -0.68018  -0.63760  -0.63760  -0.53330
 Alpha  occ. eigenvalues --   -0.38926  -0.38926  -0.33468
 Alpha virt. eigenvalues --   -0.00471   0.01975   0.01975   0.03291   0.03893
 Alpha virt. eigenvalues --    0.06884   0.06884   0.08655   0.08655   0.08800
 Alpha virt. eigenvalues --    0.09466   0.09466   0.13180   0.14665   0.23251

 Mulliken charges and spin densities:
               1          2
     1  Mn   1.025216   4.820195
     2  O   -1.025216   0.179805
 Sum of Mulliken charges =  -0.00000   5.00000

 Dipole moment (field-independent basis, Debye):
    X=              0.0000    Y=              0.0000    Z=              6.1537  Tot=              6.1537
 Quadrupole moment (field-independent basis, Debye-Ang):
   XX=            -19.3567   YY=            -19.3567   ZZ=            -22.8831
   XY=              0.0000   XZ=              0.0000   YZ=              0.0000

 \\#P ROCCSD(T)=(maxcyc=150, Full, SaveAmplitudes, ReadAmplitudes)/Gen
 4SDQ=-119.793307\CCSD=-119.7750744\CCSD(T)=-119.8176849\RMSD=8.779e-09
 Normal termination of Gaussian 16 at Sat May  5 07:11:42 2018.
