 Gaussian 16, Revision A.03,
 Gaussian 16:  ES64L-G16RevA.03 25-Dec-2016

 ----------------------------------------------------------------------
 #P ROCCSD(T)=(maxcyc=150, Full, SaveAmplitudes, ReadAmplitudes)/Gen 5d
  7f SCF=(maxcycles=300) Integral(NoXCTest) MaxDisk=500GB Pop=Regular P
 seudo=Read Guess=Read
 ----------------------------------------------------------------------

 ---
 MnH
 ---
 Symbolic Z-matrix:
 Charge =  0 Multiplicity = 7

                         Standard orientation:
 ---------------------------------------------------------------------
 Center     Atomic      Atomic             Coordinates (Angstroms)
 Number     Number       Type             X           Y           Z
 ---------------------------------------------------------------------
      1         25           0        0.000000    0.000000    0.069231
      2          1           0        0.000000    0.000000   -1.730769
 ---------------------------------------------------------------------

 SCF Done:  E(ROHF) =  -104.253319715     A.U. after   20 cycles
 E2 =    -0.6109108808D+00 EUMP2 =    -0.10486423059534D+03
 CCSD(T)
 CCSD(T)= -0.10488709338D+03

 The electronic state is 7-SG.
 Alpha  occ. eigenvalues --   -4.10294  -2.76515  -2.76515  -2.76378  -0.64524
 Alpha  occ. eigenvalues --   -0.64524  -0.64032  -0.63811  -0.63811  -0.40136
 Alpha  occ. eigenvalues --   -0.26609
 Alpha virt. eigenvalues --    0.01087   0.01087   0.02172   0.02898   0.04941
 Alpha virt. eigenvalues --    0.04941   0.05634   0.05793   0.05793   0.06195
 Alpha virt. eigenvalues --    0.06195   0.09242   0.13027   0.13954   0.18004

 Mulliken charges and spin densities:
               1          2
     1  Mn   0.372894   5.954419
     2  H   -0.372894   0.045581
 Sum of Mulliken charges =  -0.00000   6.00000

 Dipole moment (field-independent basis, Debye):
    X=              0.0000    Y=              0.0000    Z=              1.6359  Tot=              1.6359
 Quadrupole moment (field-independent basis, Debye-Ang):
   XX=            -16.1488   YY=            -16.1488   ZZ=            -26.6806
   XY=              0.0000   XZ=              0.0000   YZ=              0.0000

 \\#P ROCCSD(T)=(maxcyc=150, Full, SaveAmplitudes, ReadAmplitudes)/Gen
 4.2533197\PMP2-0=-104.8642306\CCSD=-104.8701406\CCSD(T)=-104.8870934\R
 Normal termination of Gaussian 16 at Mon Feb 26 13:00:20 2018.
