 Gaussian 16, Revision A.03,
 Gaussian 16:  ES64L-G16RevA.03 25-Dec-2016

 ----------------------------------------------------------------------
 #P ROCCSD(T)=(maxcyc=150, Full, SaveAmplitudes, ReadAmplitudes)/Gen 5d
  7f SCF=(maxcycles=300) Integral(NoXCTest) MaxDisk=500GB Pop=Regular P
 seudo=Read Guess=Read
 ----------------------------------------------------------------------

 ---
 CrH
 ---
 Symbolic Z-matrix:
 Charge =  0 Multiplicity = 6

                         Standard orientation:
 ---------------------------------------------------------------------
 Center     Atomic      Atomic             Coordinates (Angstroms)
 Number     Number       Type             X           Y           Z
 ---------------------------------------------------------------------
      1         24           0        0.000000    0.000000    0.076000
      2          1           0        0.000000    0.000000   -1.824000
 ---------------------------------------------------------------------

 SCF Done:  E(ROHF) =  -86.3709347232     A.U. after   24 cycles
 E2 =    -0.5376942699D+00 EUMP2 =    -0.86908628993042D+02
 CCSD(T)
 CCSD(T)= -0.86950735722D+02

 The electronic state is 6-SG.
 Alpha  occ. eigenvalues --   -3.87094  -2.59107  -2.59107  -2.54338  -0.52121
 Alpha  occ. eigenvalues --   -0.52121  -0.49079  -0.49079  -0.39544  -0.27400
 Alpha virt. eigenvalues --    0.01034   0.01034   0.01897   0.02475   0.04576
 Alpha virt. eigenvalues --    0.04727   0.04727   0.05315   0.05315   0.05650
 Alpha virt. eigenvalues --    0.05650   0.06840   0.09530   0.12124   0.16546

 Mulliken charges and spin densities:
               1          2
     1  Cr   0.319416   4.976881
     2  H   -0.319416   0.023119
 Sum of Mulliken charges =  -0.00000   5.00000

 Dipole moment (field-independent basis, Debye):
    X=              0.0000    Y=              0.0000    Z=              2.5559  Tot=              2.5559
 Quadrupole moment (field-independent basis, Debye-Ang):
   XX=            -17.3504   YY=            -17.3504   ZZ=            -25.9111
   XY=              0.0000   XZ=              0.0000   YZ=              0.0000

 \\#P ROCCSD(T)=(maxcyc=150, Full, SaveAmplitudes, ReadAmplitudes)/Gen
 09347\PMP2-0=-86.908629\CCSD=-86.9336541\CCSD(T)=-86.9507357\RMSD=6.80
 Normal termination of Gaussian 16 at Mon Feb 26 16:11:54 2018.
