 Gaussian 16, Revision A.03,
 Gaussian 16:  ES64L-G16RevA.03 25-Dec-2016

 ----------------------------------------------------------------------
 #P ROCCSD(T)=(maxcyc=150, Full, SaveAmplitudes, ReadAmplitudes)/Gen 5d
  7f SCF=(maxcycles=300) Integral(NoXCTest) MaxDisk=500GB Pop=Regular P
 seudo=Read Guess=Read IOp(5/15=2)
 ----------------------------------------------------------------------

 ---
 ScO
 ---
 Symbolic Z-matrix:
 Charge =  0 Multiplicity = 2

                         Standard orientation:
 ---------------------------------------------------------------------
 Center     Atomic      Atomic             Coordinates (Angstroms)
 Number     Number       Type             X           Y           Z
 ---------------------------------------------------------------------
      1         21           0        0.000000    0.000000    0.413793
      2          8           0        0.000000    0.000000   -1.086207
 ---------------------------------------------------------------------

 SCF Done:  E(ROHF) =  -61.8477311979     A.U. after   18 cycles
 E2 =    -0.6750629558D+00 EUMP2 =    -0.62522794153764D+02
 CCSD(T)
 CCSD(T)= -0.62549671464D+02

 The electronic state is 2-SG.
 Alpha  occ. eigenvalues --   -2.61003  -1.68731  -1.58135  -1.58135  -1.11533
 Alpha  occ. eigenvalues --   -0.48029  -0.48029  -0.45051  -0.22486
 Alpha virt. eigenvalues --    0.00614   0.00614   0.01958   0.02286   0.03704
 Alpha virt. eigenvalues --    0.03704   0.03851   0.03851   0.04115   0.04333
 Alpha virt. eigenvalues --    0.04333   0.06627   0.09761   0.09761   0.10899

 Mulliken charges and spin densities:
               1          2
     1  Sc   1.301948   0.979865
     2  O   -1.301948   0.020135
 Sum of Mulliken charges =  -0.00000   1.00000

 Dipole moment (field-independent basis, Debye):
    X=              0.0000    Y=              0.0000    Z=              2.7293  Tot=              2.7293
 Quadrupole moment (field-independent basis, Debye-Ang):
   XX=            -22.0879   YY=            -22.0879   ZZ=            -31.0684
   XY=              0.0000   XZ=              0.0000   YZ=              0.0000

 \\#P ROCCSD(T)=(maxcyc=150, Full, SaveAmplitudes, ReadAmplitudes)/Gen
 8\CCSD=-62.5147858\CCSD(T)=-62.5496715\RMSD=7.453e-09\PG=C*V [C*(O1Sc1
 Normal termination of Gaussian 16 at Wed Feb 21 01:12:41 2018.
