 Gaussian 16, Revision A.03,
 Gaussian 16:  ES64L-G16RevA.03 25-Dec-2016

 ----------------------------------------------------------------------
 #P ROCCSD(T)=(MaxCyc=150, Full)/Gen SCF=(maxcycle=400, vshift=200) Pse
 udo=Read Integral(NoXCTest) Pop=Regular MaxDisk=500GB Guess=Read IOp(5
 /15=2)
 ----------------------------------------------------------------------

 ---
 FeH
 ---
 Symbolic Z-matrix:
 Charge =  0 Multiplicity = 4

                         Standard orientation:
 ---------------------------------------------------------------------
 Center     Atomic      Atomic             Coordinates (Angstroms)
 Number     Number       Type             X           Y           Z
 ---------------------------------------------------------------------
      1         26           0        0.000000    0.000000    0.070370
      2          1           0        0.000000    0.000000   -1.829630
 ---------------------------------------------------------------------

 SCF Done:  E(ROHF) =  -123.107598351     A.U. after   31 cycles
 E2 =    -0.7521377848D+00 EUMP2 =    -0.12385973613610D+03
 CCSD(T)
 CCSD(T)= -0.12386726795D+03

 Unable to determine electronic state:  an orbital has unidentified symmetry.
 Alpha  occ. eigenvalues --   -4.23098  -2.76292  -2.76105  -2.76105  -0.48663
 Alpha  occ. eigenvalues --   -0.48663  -0.48548  -0.43608  -0.42597  -0.31407
 Alpha virt. eigenvalues --   -0.01074   0.02324   0.02324   0.03447   0.03702
 Alpha virt. eigenvalues --    0.08347   0.08347   0.09407   0.10036   0.10078
 Alpha virt. eigenvalues --    0.10355   0.10355   0.11157   0.16895   0.22258

 Mulliken charges and spin densities:
               1          2
     1  Fe   0.429513   2.999260
     2  H   -0.429513   0.000740
 Sum of Mulliken charges =  -0.00000   3.00000

 Dipole moment (field-independent basis, Debye):
    X=              0.0000    Y=              0.0000    Z=              5.2740  Tot=              5.2740
 Quadrupole moment (field-independent basis, Debye-Ang):
   XX=            -15.2738   YY=            -15.2738   ZZ=            -19.9530
   XY=              0.0000   XZ=              0.0000   YZ=              0.0000

 \\#P ROCCSD(T)=(MaxCyc=150, Full)/Gen SCF=(maxcycle=400, vshift=200) P
 \PMP2-0=-123.8597361\MP4SDQ=-123.8456124\CCSD=-123.8423821\CCSD(T)=-12
 Normal termination of Gaussian 16 at Sun Apr 22 23:02:58 2018.
