 Gaussian 16, Revision A.03,
 Gaussian 16:  ES64L-G16RevA.03 25-Dec-2016

 ----------------------------------------------------------------------
 #P ROCCSD(T)=(MaxCyc=150, Full)/Gen SCF=(maxcycle=400, vshift=200) Pse
 udo=Read Integral(NoXCTest) Pop=Regular MaxDisk=500GB Guess=Read IOp(5
 /15=2)
 ----------------------------------------------------------------------

 ---
 FeH
 ---
 Symbolic Z-matrix:
 Charge =  0 Multiplicity = 4

                         Standard orientation:
 ---------------------------------------------------------------------
 Center     Atomic      Atomic             Coordinates (Angstroms)
 Number     Number       Type             X           Y           Z
 ---------------------------------------------------------------------
      1         26           0        0.000000    0.000000    0.070370
      2          1           0        0.000000    0.000000   -1.829630
 ---------------------------------------------------------------------

 SCF Done:  E(ROHF) =  -123.108672138     A.U. after   28 cycles
 E2 =    -0.7879366817D+00 EUMP2 =    -0.12389660881944D+03
 CCSD(T)
 CCSD(T)= -0.12390216856D+03

 Unable to determine electronic state:  an orbital has unidentified symmetry.
 Alpha  occ. eigenvalues --   -4.23099  -2.76287  -2.76101  -2.76101  -0.48667
 Alpha  occ. eigenvalues --   -0.48667  -0.48553  -0.43614  -0.42606  -0.31409
 Alpha virt. eigenvalues --   -0.01082   0.02083   0.02083   0.03163   0.03424
 Alpha virt. eigenvalues --    0.06203   0.06676   0.06690   0.06873   0.06873
 Alpha virt. eigenvalues --    0.07656   0.07656   0.10318   0.15339   0.17578

 Mulliken charges and spin densities:
               1          2
     1  Fe   0.363484   2.998552
     2  H   -0.363484   0.001448
 Sum of Mulliken charges =  -0.00000   3.00000

 Dipole moment (field-independent basis, Debye):
    X=              0.0000    Y=              0.0000    Z=              5.2690  Tot=              5.2690
 Quadrupole moment (field-independent basis, Debye-Ang):
   XX=            -15.2609   YY=            -15.2609   ZZ=            -19.9660
   XY=              0.0000   XZ=              0.0000   YZ=              0.0000

 \\#P ROCCSD(T)=(MaxCyc=150, Full)/Gen SCF=(maxcycle=400, vshift=200) P
 \PMP2-0=-123.8966088\MP4SDQ=-123.8789838\CCSD=-123.8749002\CCSD(T)=-12
 Normal termination of Gaussian 16 at Sun Apr 22 23:19:02 2018.
