 Gaussian 16, Revision A.03,
 Gaussian 16:  ES64L-G16RevA.03 25-Dec-2016

 ----------------------------------------------------------------------
 #P ROCCSD(T)=(MaxCyc=150, Full)/Gen SCF=(maxcycle=400, vshift=200) Pse
 udo=Read Integral(NoXCTest) Pop=Regular MaxDisk=500GB Guess=Read IOp(5
 /15=2)
 ----------------------------------------------------------------------

 ---
 FeH
 ---
 Symbolic Z-matrix:
 Charge =  0 Multiplicity = 4

                         Standard orientation:
 ---------------------------------------------------------------------
 Center     Atomic      Atomic             Coordinates (Angstroms)
 Number     Number       Type             X           Y           Z
 ---------------------------------------------------------------------
      1         26           0        0.000000    0.000000    0.070370
      2          1           0        0.000000    0.000000   -1.829630
 ---------------------------------------------------------------------

 SCF Done:  E(ROHF) =  -123.108886037     A.U. after   19 cycles
 E2 =    -0.8021862030D+00 EUMP2 =    -0.12391107223987D+03
 CCSD(T)
 CCSD(T)= -0.12391460531D+03

 Unable to determine electronic state:  an orbital has unidentified symmetry.
 Alpha  occ. eigenvalues --   -4.23098  -2.76283  -2.76098  -2.76098  -0.48665
 Alpha  occ. eigenvalues --   -0.48665  -0.48551  -0.43618  -0.42610  -0.31410
 Alpha virt. eigenvalues --   -0.01097   0.02018   0.02018   0.02750   0.03013
 Alpha virt. eigenvalues --    0.05736   0.06117   0.06129   0.06372   0.06372
 Alpha virt. eigenvalues --    0.07287   0.07287   0.08980   0.12538   0.15526

 Mulliken charges and spin densities:
               1          2
     1  Fe   0.322373   2.997797
     2  H   -0.322373   0.002203
 Sum of Mulliken charges =  -0.00000   3.00000

 Dipole moment (field-independent basis, Debye):
    X=              0.0000    Y=              0.0000    Z=              5.2688  Tot=              5.2688
 Quadrupole moment (field-independent basis, Debye-Ang):
   XX=            -15.2585   YY=            -15.2585   ZZ=            -19.9695
   XY=              0.0000   XZ=              0.0000   YZ=              0.0000

 \\#P ROCCSD(T)=(MaxCyc=150, Full)/Gen SCF=(maxcycle=400, vshift=200) P
 MP2-0=-123.9110722\MP4SDQ=-123.8908658\CCSD=-123.8864995\CCSD(T)=-123.
 Normal termination of Gaussian 16 at Mon Apr 23 00:01:18 2018.
