 Gaussian 16, Revision A.03,
 Gaussian 16:  ES64L-G16RevA.03 25-Dec-2016

 ----------------------------------------------------------------------
 #P ROCCSD(T)=(maxcyc=150, Full, SaveAmplitudes, ReadAmplitudes)/Gen 5d
  7f SCF=(maxcycles=300) Integral(NoXCTest) MaxDisk=500GB Pop=Regular P
 seudo=Read Guess=Read IOp(5/15=2)
 ----------------------------------------------------------------------

 ---
 MnO
 ---
 Symbolic Z-matrix:
 Charge =  0 Multiplicity = 6

                         Standard orientation:
 ---------------------------------------------------------------------
 Center     Atomic      Atomic             Coordinates (Angstroms)
 Number     Number       Type             X           Y           Z
 ---------------------------------------------------------------------
      1         25           0        0.000000    0.000000    0.412121
      2          8           0        0.000000    0.000000   -1.287879
 ---------------------------------------------------------------------

 SCF Done:  E(ROHF) =  -119.178043679     A.U. after   30 cycles
 E2 =    -0.8924986808D+00 EUMP2 =    -0.12007054236013D+03
 CCSD(T)
 CCSD(T)= -0.12010111456D+03

 The electronic state is 6-SG.
 Alpha  occ. eigenvalues --   -4.23167  -2.78710  -2.78710  -2.78042  -1.12047
 Alpha  occ. eigenvalues --   -0.64471  -0.64471  -0.63696  -0.63696  -0.59580
 Alpha  occ. eigenvalues --   -0.33892  -0.33892  -0.33833
 Alpha virt. eigenvalues --   -0.04592   0.01574   0.01574   0.01846   0.03844
 Alpha virt. eigenvalues --    0.06689   0.06689   0.08210   0.08442   0.08442
 Alpha virt. eigenvalues --    0.09605   0.09605   0.13207   0.14044   0.23019

 Mulliken charges and spin densities:
               1          2
     1  Mn   1.153867   4.894164
     2  O   -1.153867   0.105836
 Sum of Mulliken charges =  -0.00000   5.00000

 Dipole moment (field-independent basis, Debye):
    X=              0.0000    Y=              0.0000    Z=              9.1114  Tot=              9.1114
 Quadrupole moment (field-independent basis, Debye-Ang):
   XX=            -18.8770   YY=            -18.8770   ZZ=            -23.8646
   XY=              0.0000   XZ=              0.0000   YZ=              0.0000

 \\#P ROCCSD(T)=(maxcyc=150, Full, SaveAmplitudes, ReadAmplitudes)/Gen
 .0685819\CCSD=-120.0598941\CCSD(T)=-120.1011146\RMSD=4.088e-09\PG=C*V
 Normal termination of Gaussian 16 at Wed Mar 14 04:59:54 2018.
