 Gaussian 16, Revision A.03,
 Gaussian 16:  ES64L-G16RevA.03 25-Dec-2016

 ----------------------------------------------------------------------
 #P ROCCSD(T)=(maxcyc=150, Full, SaveAmplitudes, ReadAmplitudes)/Gen 5d
  7f SCF=(maxcycles=300) Integral(NoXCTest) MaxDisk=500GB Pop=Regular P
 seudo=Read Guess=Read
 ----------------------------------------------------------------------

 ---
 CrH
 ---
 Symbolic Z-matrix:
 Charge =  0 Multiplicity = 6

                         Standard orientation:
 ---------------------------------------------------------------------
 Center     Atomic      Atomic             Coordinates (Angstroms)
 Number     Number       Type             X           Y           Z
 ---------------------------------------------------------------------
      1         24           0        0.000000    0.000000    0.072000
      2          1           0        0.000000    0.000000   -1.728000
 ---------------------------------------------------------------------

 SCF Done:  E(ROHF) =  -86.8777048826     A.U. after   25 cycles
 E2 =    -0.5675098812D+00 EUMP2 =    -0.87445214763858D+02
 CCSD(T)
 CCSD(T)= -0.87493811452D+02

 The electronic state is 6-SG.
 Alpha  occ. eigenvalues --   -3.68571  -2.45026  -2.45026  -2.40110  -0.55810
 Alpha  occ. eigenvalues --   -0.55810  -0.52394  -0.52394  -0.39835  -0.26343
 Alpha virt. eigenvalues --    0.01123   0.01123   0.01975   0.02433   0.04599
 Alpha virt. eigenvalues --    0.04871   0.04871   0.05310   0.05310   0.05650
 Alpha virt. eigenvalues --    0.05650   0.06870   0.09603   0.12327   0.16677

 Mulliken charges and spin densities:
               1          2
     1  Cr   0.331472   4.978957
     2  H   -0.331472   0.021043
 Sum of Mulliken charges =  -0.00000   5.00000

 Dipole moment (field-independent basis, Debye):
    X=              0.0000    Y=              0.0000    Z=              2.2978  Tot=              2.2978
 Quadrupole moment (field-independent basis, Debye-Ang):
   XX=            -16.9617   YY=            -16.9617   ZZ=            -25.2225
   XY=              0.0000   XZ=              0.0000   YZ=              0.0000

 \\#P ROCCSD(T)=(maxcyc=150, Full, SaveAmplitudes, ReadAmplitudes)/Gen
 777049\PMP2-0=-87.4452148\CCSD=-87.4762684\CCSD(T)=-87.4938115\RMSD=4.
 Normal termination of Gaussian 16 at Mon Feb 26 11:14:32 2018.
