 Gaussian 16, Revision A.03,
 Gaussian 16:  ES64L-G16RevA.03 25-Dec-2016

 ----------------------------------------------------------------------
 #P ROCCSD(T)=(maxcyc=150, Full, SaveAmplitudes, ReadAmplitudes)/Gen 5d
  7f SCF=(maxcycles=300) Integral(NoXCTest) MaxDisk=500GB Pop=Regular P
 seudo=Read Guess=Read
 ----------------------------------------------------------------------

 ---
 TiO
 ---
 Symbolic Z-matrix:
 Charge =  0 Multiplicity = 3

                         Standard orientation:
 ---------------------------------------------------------------------
 Center     Atomic      Atomic             Coordinates (Angstroms)
 Number     Number       Type             X           Y           Z
 ---------------------------------------------------------------------
      1         22           0        0.000000    0.000000    0.506667
      2          8           0        0.000000    0.000000   -1.393333
 ---------------------------------------------------------------------

 SCF Done:  E(ROHF) =  -73.3386734622     A.U. after   21 cycles
 E2 =    -0.7874618615D+00 EUMP2 =    -0.74126135323746D+02
 CCSD(T)
 CCSD(T)= -0.74161291126D+02

 Unable to determine electronic state:  an orbital has unidentified symmetry.
 Alpha  occ. eigenvalues --   -3.08088  -1.98003  -1.98003  -1.93382  -1.12328
 Alpha  occ. eigenvalues --   -0.52745  -0.41390  -0.37400  -0.37400  -0.29738
 Alpha virt. eigenvalues --   -0.00960  -0.00960   0.00003   0.01828   0.02857
 Alpha virt. eigenvalues --    0.02857   0.03181   0.03502   0.03673   0.04397
 Alpha virt. eigenvalues --    0.04397   0.04773   0.06455   0.09746   0.09827

 Mulliken charges and spin densities:
               1          2
     1  Ti   1.007876   1.979453
     2  O   -1.007876   0.020547
 Sum of Mulliken charges =  -0.00000   2.00000

 Dipole moment (field-independent basis, Debye):
    X=              0.0000    Y=              0.0000    Z=              7.0181  Tot=              7.0181
 Quadrupole moment (field-independent basis, Debye-Ang):
   XX=            -21.7267   YY=            -21.7267   ZZ=            -30.7028
   XY=              0.0000   XZ=              0.0000   YZ=              0.0000

 \\#P ROCCSD(T)=(maxcyc=150, Full, SaveAmplitudes, ReadAmplitudes)/Gen
 -0=-74.1261353\CCSD=-74.1022112\CCSD(T)=-74.1612911\RMSD=1.210e-09\PG=
 Normal termination of Gaussian 16 at Sat Mar 10 03:49:46 2018.
