 Gaussian 16, Revision A.03,
 Gaussian 16:  ES64L-G16RevA.03 25-Dec-2016

 ----------------------------------------------------------------------
 #P ROCCSD(T)=(MaxCyc=150, Full)/Gen SCF=(maxcycle=400) Pseudo=Read Int
 egral(NoXCTest) Pop=Regular MaxDisk=500GB Guess=Read IOp(5/15=2)
 ----------------------------------------------------------------------

 ---
 CoO
 ---
 Symbolic Z-matrix:
 Charge =  0 Multiplicity = 4

                         Standard orientation:
 ---------------------------------------------------------------------
 Center     Atomic      Atomic             Coordinates (Angstroms)
 Number     Number       Type             X           Y           Z
 ---------------------------------------------------------------------
      1         27           0        0.000000    0.000000    0.365714
      2          8           0        0.000000    0.000000   -1.234286
 ---------------------------------------------------------------------

 SCF Done:  E(ROHF) =  -160.330632981     A.U. after   20 cycles
 E2 =    -0.1124604852D+01 EUMP2 =    -0.16145523783350D+03
 CCSD(T)
 CCSD(T)= -0.16147788848D+03

 Unable to determine electronic state:  partially filled degenerate orbitals.
 Alpha  occ. eigenvalues --   -4.83685  -3.28478  -3.28067  -3.28067  -1.17592
 Alpha  occ. eigenvalues --   -0.76477  -0.76477  -0.75223  -0.70177  -0.67411
 Alpha  occ. eigenvalues --   -0.38789  -0.38789  -0.36396
 Alpha virt. eigenvalues --   -0.04581   0.01872   0.01872   0.02080   0.03756
 Alpha virt. eigenvalues --    0.06802   0.06802   0.07081   0.07129   0.07138
 Alpha virt. eigenvalues --    0.08472   0.08472   0.12750   0.14457   0.21081

 Mulliken charges and spin densities:
               1          2
     1  Co   1.004773   2.898740
     2  O   -1.004773   0.101260
 Sum of Mulliken charges =  -0.00000   3.00000

 Dipole moment (field-independent basis, Debye):
    X=              0.0000    Y=              0.0000    Z=              7.6831  Tot=              7.6831
 Quadrupole moment (field-independent basis, Debye-Ang):
   XX=            -18.9143   YY=            -18.9143   ZZ=            -21.4698
   XY=              0.0000   XZ=              0.0000   YZ=              0.0000

 \\#P ROCCSD(T)=(MaxCyc=150, Full)/Gen SCF=(maxcycle=400) Pseudo=Read I
 552378\MP4SDQ=-161.4293875\CCSD=-161.4207606\CCSD(T)=-161.4778885\RMSD
 Normal termination of Gaussian 16 at Sat Mar 31 16:58:00 2018.
