 Gaussian 16, Revision A.03,
 Gaussian 16:  ES64L-G16RevA.03 25-Dec-2016

 ----------------------------------------------------------------------
 #P ROCCSD(T)=(MaxCyc=150, Full)/Gen SCF=(maxcycle=400) Pseudo=Read Int
 egral(NoXCTest) Pop=Regular MaxDisk=500GB Guess=Read IOp(5/15=2)
 ----------------------------------------------------------------------

 ---
 CoO
 ---
 Symbolic Z-matrix:
 Charge =  0 Multiplicity = 4

                         Standard orientation:
 ---------------------------------------------------------------------
 Center     Atomic      Atomic             Coordinates (Angstroms)
 Number     Number       Type             X           Y           Z
 ---------------------------------------------------------------------
      1         27           0        0.000000    0.000000    0.365714
      2          8           0        0.000000    0.000000   -1.234286
 ---------------------------------------------------------------------

 SCF Done:  E(ROHF) =  -160.327795053     A.U. after    1 cycles
 E2 =    -0.1072526339D+01 EUMP2 =    -0.16140032139179D+03
 CCSD(T)
 CCSD(T)= -0.16142567073D+03

 Unable to determine electronic state:  partially filled degenerate orbitals.
 Alpha  occ. eigenvalues --   -4.83695  -3.28499  -3.28085  -3.28085  -1.17635
 Alpha  occ. eigenvalues --   -0.76484  -0.76483  -0.75230  -0.70182  -0.67422
 Alpha  occ. eigenvalues --   -0.38783  -0.38783  -0.36411
 Alpha virt. eigenvalues --   -0.04588   0.02185   0.02185   0.02336   0.04173
 Alpha virt. eigenvalues --    0.07917   0.07917   0.09865   0.10835   0.10864
 Alpha virt. eigenvalues --    0.11737   0.11737   0.14997   0.15455   0.26183

 Mulliken charges and spin densities:
               1          2
     1  Co   1.062468   2.897822
     2  O   -1.062468   0.102178
 Sum of Mulliken charges =  -0.00000   3.00000

 Dipole moment (field-independent basis, Debye):
    X=              0.0000    Y=              0.0000    Z=              7.6942  Tot=              7.6942
 Quadrupole moment (field-independent basis, Debye-Ang):
   XX=            -18.9172   YY=            -18.9172   ZZ=            -21.4887
   XY=              0.0000   XZ=              0.0000   YZ=              0.0000

 \\#P ROCCSD(T)=(MaxCyc=150, Full)/Gen SCF=(maxcycle=400) Pseudo=Read I
 .4003214\MP4SDQ=-161.3802258\CCSD=-161.3708256\CCSD(T)=-161.4256707\RM
 Normal termination of Gaussian 16 at Sat Mar 31 14:41:26 2018.
