 Gaussian 16, Revision A.03,
 Gaussian 16:  ES64L-G16RevA.03 25-Dec-2016

 ----------------------------------------------------------------------
 #P ROCCSD(T)=(maxcyc=150, Full)/Gen 5d 7f SCF=(maxcycles=300, NoVarAcc
 , VShift=200) MaxDisk=100GB Pop=Regular Pseudo=Read Guess=Read IOp(5/1
 5=2)
 ----------------------------------------------------------------------

 --
 Cr
 --
 Symbolic Z-matrix:
 Charge =  0 Multiplicity = 7

                         Standard orientation:
 ---------------------------------------------------------------------
 Center     Atomic      Atomic             Coordinates (Angstroms)
 Number     Number       Type             X           Y           Z
 ---------------------------------------------------------------------
      1         24           0        0.000000    0.000000    0.000000
 ---------------------------------------------------------------------

 SCF Done:  E(ROHF) =  -86.4808321160     A.U. after   41 cycles
 E2 =    -0.5308743564D+00 EUMP2 =    -0.87011706472389D+02
 CCSD(T)
 CCSD(T)= -0.87022590028D+02

 The electronic state is 7-A1G.
 Alpha  occ. eigenvalues --   -3.59197  -2.29280  -2.29280  -2.29280  -0.37401
 Alpha  occ. eigenvalues --   -0.37401  -0.37401  -0.37401  -0.37401  -0.22529
 Alpha virt. eigenvalues --    0.01824   0.01824   0.01824   0.03174   0.06595
 Alpha virt. eigenvalues --    0.06595   0.06595   0.07928   0.07928   0.07928
 Alpha virt. eigenvalues --    0.07928   0.07928   0.21078   0.23345   0.23345

 Mulliken charges and spin densities:
               1          2
     1  Cr  -0.000000   6.000000
 Sum of Mulliken charges =  -0.00000   6.00000

 Dipole moment (field-independent basis, Debye):
    X=              0.0000    Y=              0.0000    Z=              0.0000  Tot=              0.0000
 Quadrupole moment (field-independent basis, Debye-Ang):
   XX=            -16.2957   YY=            -16.2957   ZZ=            -16.2957
   XY=              0.0000   XZ=             -0.0000   YZ=             -0.0000

 1\1\GINC-C506-024\SP\ROCCSD(T)-Full\Gen\Cr1(7)\AANNABE\05-Apr-2018\0\\
 #P ROCCSD(T)=(maxcyc=150, Full)/Gen 5d 7f SCF=(maxcycles=300, NoVarAcc
 , VShift=200) MaxDisk=100GB Pop=Regular Pseudo=Read Guess=Read IOp(5/1
 5=2)\\Cr\\0,7\Cr,0,0.,0.,0.\\Version=ES64L-G16RevA.03\State=7-A1G\HF=-
 86.4808321\MP2=-87.0117065\MP3=-87.0029908\PUHF=-86.4808321\PMP2-0=-87
 .0117065\MP4SDQ=-87.0076225\CCSD=-87.0063925\CCSD(T)=-87.02259\RMSD=9.
 018e-09\PG=OH [O(Cr1)]\\@

 Normal termination of Gaussian 16 at Thu Apr  5 14:52:29 2018.
