 Gaussian 16, Revision A.03,
 Gaussian 16:  ES64L-G16RevA.03 25-Dec-2016

 ----------------------------------------------------------------------
 #P ROCCSD(T)=(maxcyc=150, Full)/Gen 5d 7f SCF=(maxcycles=300) Integral
 (NoXCTest) MaxDisk=500GB Pop=Regular Pseudo=Read IOp(5/15=2) Guess=Rea
 d
 ----------------------------------------------------------------------

 ---
 ScH
 ---
 Symbolic Z-matrix:
 Charge =  0 Multiplicity = 1

                         Standard orientation:
 ---------------------------------------------------------------------
 Center     Atomic      Atomic             Coordinates (Angstroms)
 Number     Number       Type             X           Y           Z
 ---------------------------------------------------------------------
      1         21           0        0.000000    0.000000    0.050000
      2          1           0        0.000000    0.000000   -1.050000
 ---------------------------------------------------------------------

 SCF Done:  E(ROHF) =  -46.6158322120     A.U. after   12 cycles
 E2 =    -0.4336753720D+00 EUMP2 =    -0.47049507584020D+02
 CCSD(T)
 CCSD(T)= -0.47086206952D+02

 The electronic state is 1-SG.
 Alpha  occ. eigenvalues --   -2.64458  -1.64442  -1.57427  -1.57427  -0.47305
 Alpha  occ. eigenvalues --   -0.21424
 Alpha virt. eigenvalues --    0.01312   0.01359   0.01359   0.02053   0.02882
 Alpha virt. eigenvalues --    0.02882   0.02896   0.02909   0.02909   0.04260
 Alpha virt. eigenvalues --    0.04539   0.04539   0.08300   0.08300   0.08315

 Mulliken charges and spin densities:
               1          2
     1  Sc   0.110670   0.000000
     2  H   -0.110670   0.000000
 Sum of Mulliken charges =  -0.00000   0.00000

 Dipole moment (field-independent basis, Debye):
    X=              0.0000    Y=              0.0000    Z=              0.9579  Tot=              0.9579
 Quadrupole moment (field-independent basis, Debye-Ang):
   XX=            -23.4762   YY=            -23.4762   ZZ=            -21.9906
   XY=              0.0000   XZ=              0.0000   YZ=              0.0000

 P ROCCSD(T)=(maxcyc=150, Full)/Gen 5d 7f SCF=(maxcycles=300) Integral(
 PMP2-0=-47.0495076\MP4SDQ=-47.0683825\CCSD=-47.0680516\CCSD(T)=-47.086
 Normal termination of Gaussian 16 at Tue Feb 13 17:48:42 2018.
