 Gaussian 16, Revision A.03,
 Gaussian 16:  ES64L-G16RevA.03 25-Dec-2016

 ----------------------------------------------------------------------
 #P ROCCSD(T)=(maxcyc=150, Full, SaveAmplitudes, ReadAmplitudes)/Gen 5d
  7f SCF=(maxcycles=300) Integral(NoXCTest) MaxDisk=500GB Pop=Regular P
 seudo=Read Guess=Read
 ----------------------------------------------------------------------

 ---
 ScO
 ---
 Symbolic Z-matrix:
 Charge =  0 Multiplicity = 2

                         Standard orientation:
 ---------------------------------------------------------------------
 Center     Atomic      Atomic             Coordinates (Angstroms)
 Number     Number       Type             X           Y           Z
 ---------------------------------------------------------------------
      1         21           0        0.000000    0.000000    0.358621
      2          8           0        0.000000    0.000000   -0.941379
 ---------------------------------------------------------------------

 SCF Done:  E(ROHF) =  -61.7711024690     A.U. after   17 cycles
 E2 =    -0.6949091703D+00 EUMP2 =    -0.62466011639298D+02
 CCSD(T)
 CCSD(T)= -0.62492432316D+02

 The electronic state is 2-SG.
 Alpha  occ. eigenvalues --   -2.57870  -1.76681  -1.53132  -1.53132  -1.06757
 Alpha  occ. eigenvalues --   -0.57940  -0.57940  -0.47209  -0.19388
 Alpha virt. eigenvalues --    0.00946   0.00946   0.01878   0.02303   0.02810
 Alpha virt. eigenvalues --    0.02810   0.02893   0.02893   0.02893   0.04172
 Alpha virt. eigenvalues --    0.04172   0.06546   0.08068   0.08068   0.08547

 Mulliken charges and spin densities:
               1          2
     1  Sc   0.956139   1.009550
     2  O   -0.956139  -0.009550
 Sum of Mulliken charges =  -0.00000   1.00000

 Dipole moment (field-independent basis, Debye):
    X=              0.0000    Y=              0.0000    Z=              0.1385  Tot=              0.1385
 Quadrupole moment (field-independent basis, Debye-Ang):
   XX=            -22.7985   YY=            -22.7985   ZZ=            -29.6581
   XY=              0.0000   XZ=              0.0000   YZ=              0.0000

 \\#P ROCCSD(T)=(maxcyc=150, Full, SaveAmplitudes, ReadAmplitudes)/Gen
 711025\PMP2-0=-62.4660116\CCSD=-62.4608611\CCSD(T)=-62.4924323\RMSD=1.
 Normal termination of Gaussian 16 at Tue Feb 20 23:36:37 2018.
