 Gaussian 16, Revision A.03,
 Gaussian 16:  ES64L-G16RevA.03 25-Dec-2016

 ----------------------------------------------------------------------
 #P ROCCSD(T)=(maxcyc=150, Full)/Gen 5d 7f SCF=(maxcycles=300) Integral
 (NoXCTest, DKHSO) MaxDisk=500GB Pop=Regular IOp(5/15=2) Guess=Read
 ----------------------------------------------------------------------

 ---
 MnH
 ---
 Symbolic Z-matrix:
 Charge =  0 Multiplicity = 7

                         Standard orientation:
 ---------------------------------------------------------------------
 Center     Atomic      Atomic             Coordinates (Angstroms)
 Number     Number       Type             X           Y           Z
 ---------------------------------------------------------------------
      1         25           0        0.000000    0.000000    0.076923
      2          1           0        0.000000    0.000000   -1.923077
 ---------------------------------------------------------------------

 SCF Done:  E(ROHF) =  -1157.94197095     A.U. after   20 cycles
 E2 =    -0.9968990295D+00 EUMP2 =    -0.11589388699766D+04
 CCSD(T)
 CCSD(T)= -0.11589493762D+04

 The electronic state is 7-SG.
 Alpha  occ. eigenvalues -- -242.51480 -29.61691 -24.97148 -24.97148 -24.97089
 Alpha  occ. eigenvalues --   -4.10650  -2.75981  -2.75981  -2.75707  -0.65536
 Alpha  occ. eigenvalues --   -0.65536  -0.64834  -0.64834  -0.64787  -0.38699
 Alpha  occ. eigenvalues --   -0.26995
 Alpha virt. eigenvalues --    0.00958   0.00958   0.02150   0.02897   0.04855
 Alpha virt. eigenvalues --    0.04855   0.05575   0.05754   0.05754   0.06196
 Alpha virt. eigenvalues --    0.06196   0.09618   0.12185   0.13651   0.18007

 Mulliken charges and spin densities:
               1          2
     1  Mn   0.381217   5.952965
     2  H   -0.381217   0.047035
 Sum of Mulliken charges =   0.00000   6.00000

 Dipole moment (field-independent basis, Debye):
    X=              0.0000    Y=              0.0000    Z=              2.4057  Tot=              2.4057
 Quadrupole moment (field-independent basis, Debye-Ang):
   XX=            -16.7412   YY=            -16.7412   ZZ=            -28.3202
   XY=              0.0000   XZ=              0.0000   YZ=              0.0000

 \\#P ROCCSD(T)=(maxcyc=150, Full)/Gen 5d 7f SCF=(maxcycles=300) Integr
 09\PMP2-0=-1158.93887\MP4SDQ=-1158.9314867\CCSD=-1158.93211\CCSD(T)=-1
 Normal termination of Gaussian 16 at Wed Feb 14 23:38:58 2018.
