 Gaussian 16, Revision A.03,
 Gaussian 16:  ES64L-G16RevA.03 25-Dec-2016

 ----------------------------------------------------------------------
 #P ROCCSD(T)=(maxcyc=150, Full)/Gen 5d 7f SCF=(maxcycles=300) Integral
 (NoXCTest) MaxDisk=500GB Pop=Regular Pseudo=Read
 ----------------------------------------------------------------------

 ---
 MnH
 ---
 Symbolic Z-matrix:
 Charge =  0 Multiplicity = 7

                         Standard orientation:
 ---------------------------------------------------------------------
 Center     Atomic      Atomic             Coordinates (Angstroms)
 Number     Number       Type             X           Y           Z
 ---------------------------------------------------------------------
      1         25           0        0.000000    0.000000    0.042308
      2          1           0        0.000000    0.000000   -1.057692
 ---------------------------------------------------------------------

 SCF Done:  E(ROHF) =  -103.871114894     A.U. after   29 cycles
 E2 =    -0.6041499335D+00 EUMP2 =    -0.10447526482791D+03
 CCSD(T)
 CCSD(T)= -0.10449316540D+03

 The electronic state is 7-SG.
 Alpha  occ. eigenvalues --   -4.15831  -2.81457  -2.79881  -2.79881  -0.69940
 Alpha  occ. eigenvalues --   -0.64012  -0.64012  -0.63404  -0.63404  -0.40270
 Alpha  occ. eigenvalues --   -0.22763
 Alpha virt. eigenvalues --    0.01307   0.01307   0.02015   0.03393   0.05759
 Alpha virt. eigenvalues --    0.05759   0.08503   0.08503   0.08633   0.08834
 Alpha virt. eigenvalues --    0.08874   0.08874   0.14222   0.22465   0.22496

 Mulliken charges and spin densities:
               1          2
     1  Mn   0.534351   5.926972
     2  H   -0.534351   0.073028
 Sum of Mulliken charges =  -0.00000   6.00000

 Dipole moment (field-independent basis, Debye):
    X=              0.0000    Y=              0.0000    Z=             -0.7475  Tot=              0.7475
 Quadrupole moment (field-independent basis, Debye-Ang):
   XX=            -16.0197   YY=            -16.0197   ZZ=            -25.4786
   XY=              0.0000   XZ=              0.0000   YZ=              0.0000

 \\#P ROCCSD(T)=(maxcyc=150, Full)/Gen 5d 7f SCF=(maxcycles=300) Integr
 648\MP4SDQ=-104.4747436\CCSD=-104.4757114\CCSD(T)=-104.4931654\RMSD=8.
 Normal termination of Gaussian 16 at Mon Feb 12 18:08:49 2018.
