 Gaussian 16, Revision A.03,
 Gaussian 16:  ES64L-G16RevA.03 25-Dec-2016

 ----------------------------------------------------------------------
 #P ROCCSD(T)=(maxcyc=150, Full)/Gen 5d 7f SCF=(maxcycles=300) Integral
 (NoXCTest) MaxDisk=500GB Pop=Regular Pseudo=Read IOp(5/15=2) Guess=Rea
 d
 ----------------------------------------------------------------------

 ---
 ScH
 ---
 Symbolic Z-matrix:
 Charge =  0 Multiplicity = 1

                         Standard orientation:
 ---------------------------------------------------------------------
 Center     Atomic      Atomic             Coordinates (Angstroms)
 Number     Number       Type             X           Y           Z
 ---------------------------------------------------------------------
      1         21           0        0.000000    0.000000    0.059091
      2          1           0        0.000000    0.000000   -1.240909
 ---------------------------------------------------------------------

 SCF Done:  E(ROHF) =  -46.7266519275     A.U. after   12 cycles
 E2 =    -0.4159541802D+00 EUMP2 =    -0.47142606107752D+02
 CCSD(T)
 CCSD(T)= -0.47182627647D+02

 The electronic state is 1-SG.
 Alpha  occ. eigenvalues --   -2.66808  -1.63283  -1.60367  -1.60367  -0.46132
 Alpha  occ. eigenvalues --   -0.21780
 Alpha virt. eigenvalues --    0.01380   0.01380   0.01575   0.02191   0.03485
 Alpha virt. eigenvalues --    0.03915   0.03915   0.03938   0.03938   0.04922
 Alpha virt. eigenvalues --    0.04922   0.05022   0.09274   0.10391   0.10391

 Mulliken charges and spin densities:
               1          2
     1  Sc   0.471540   0.000000
     2  H   -0.471540   0.000000
 Sum of Mulliken charges =  -0.00000   0.00000

 Dipole moment (field-independent basis, Debye):
    X=              0.0000    Y=              0.0000    Z=              0.6499  Tot=              0.6499
 Quadrupole moment (field-independent basis, Debye-Ang):
   XX=            -23.4160   YY=            -23.4160   ZZ=            -23.0026
   XY=              0.0000   XZ=              0.0000   YZ=              0.0000

 P ROCCSD(T)=(maxcyc=150, Full)/Gen 5d 7f SCF=(maxcycles=300) Integral(
 PMP2-0=-47.1426061\MP4SDQ=-47.1656313\CCSD=-47.1650554\CCSD(T)=-47.182
 Normal termination of Gaussian 16 at Tue Feb 13 20:45:56 2018.
