 Gaussian 16, Revision A.03,
 Gaussian 16:  ES64L-G16RevA.03 25-Dec-2016

 ----------------------------------------------------------------------
 #P ROCCSD(T)=(maxcyc=150, Full)/Gen 5d 7f SCF=(maxcycles=300, NoVarAcc
 , VShift=200) MaxDisk=100GB Pop=Regular Pseudo=Read Guess=Read
 ----------------------------------------------------------------------

 --
 Mn
 --
 Symbolic Z-matrix:
 Charge =  0 Multiplicity = 6

                         Standard orientation:
 ---------------------------------------------------------------------
 Center     Atomic      Atomic             Coordinates (Angstroms)
 Number     Number       Type             X           Y           Z
 ---------------------------------------------------------------------
      1         25           0        0.000000    0.000000    0.000000
 ---------------------------------------------------------------------

 SCF Done:  E(ROHF) =  -103.524676971     A.U. after   20 cycles
 E2 =    -0.5931646196D+00 EUMP2 =    -0.10411784159034D+03
 CCSD(T)
 CCSD(T)= -0.10413819451D+03

 The electronic state is 6-A1G.
 Alpha  occ. eigenvalues --   -4.15673  -2.79698  -2.79698  -2.79698  -0.62845
 Alpha  occ. eigenvalues --   -0.62845  -0.62845  -0.62845  -0.62845  -0.26840
 Alpha virt. eigenvalues --    0.01740   0.01740   0.01740   0.02541   0.05833
 Alpha virt. eigenvalues --    0.05833   0.05833   0.06097   0.06097   0.06097
 Alpha virt. eigenvalues --    0.06097   0.06097   0.13380   0.19367   0.19367

 Mulliken charges and spin densities:
               1          2
     1  Mn  -0.000000   5.000000
 Sum of Mulliken charges =  -0.00000   5.00000

 Dipole moment (field-independent basis, Debye):
    X=              0.0000    Y=              0.0000    Z=              0.0000  Tot=              0.0000
 Quadrupole moment (field-independent basis, Debye-Ang):
   XX=            -18.8232   YY=            -18.8232   ZZ=            -18.8232
   XY=              0.0000   XZ=              0.0000   YZ=             -0.0000

 1\1\GINC-C406-023\SP\ROCCSD(T)-Full\Gen\Mn1(6)\AANNABE\12-Mar-2018\0\\
 #P ROCCSD(T)=(maxcyc=150, Full)/Gen 5d 7f SCF=(maxcycles=300, NoVarAcc
 , VShift=200) MaxDisk=100GB Pop=Regular Pseudo=Read Guess=Read\\Mn\\0,
 6\Mn,0,0.,0.,0.\\Version=ES64L-G16RevA.03\State=6-A1G\HF=-103.524677\M
 P2=-104.1178416\MP3=-104.1173504\PUHF=-103.524677\PMP2-0=-104.1178416\
 MP4SDQ=-104.1197275\CCSD=-104.1199173\CCSD(T)=-104.1381945\RMSD=6.292e
 -09\PG=OH [O(Mn1)]\\@

 Normal termination of Gaussian 16 at Mon Mar 12 14:07:36 2018.
