 Gaussian 16, Revision A.03,
 Gaussian 16:  ES64L-G16RevA.03 25-Dec-2016

 ----------------------------------------------------------------------
 #P ROCCSD(T)=(maxcyc=150, Window=(6,0), SaveAmplitudes, ReadAmplitudes
 )/Gen 5d 7f SCF=(maxcycles=300) Integral(NoXCTest, DKHSO) MaxDisk=500G
 B Pop=Regular Guess=Read IOp(5/15=2)
 ----------------------------------------------------------------------

 ---
 MnH
 ---
 Symbolic Z-matrix:
 Charge =  0 Multiplicity = 7

                         Standard orientation:
 ---------------------------------------------------------------------
 Center     Atomic      Atomic             Coordinates (Angstroms)
 Number     Number       Type             X           Y           Z
 ---------------------------------------------------------------------
      1         25           0        0.000000    0.000000    0.050000
      2          1           0        0.000000    0.000000   -1.250000
 ---------------------------------------------------------------------

 SCF Done:  E(ROHF) =  -1157.87538178     A.U. after   27 cycles
 E2 =    -0.5740820485D+00 EUMP2 =    -0.11584494638253D+04
 CCSD(T)
 CCSD(T)= -0.11584634067D+04

 The electronic state is 7-SG.
 Alpha  occ. eigenvalues -- -242.48941 -29.59593 -24.95002 -24.95002 -24.94878
 Alpha  occ. eigenvalues --   -4.08639  -2.74222  -2.73647  -2.73647  -0.66342
 Alpha  occ. eigenvalues --   -0.63296  -0.63296  -0.63037  -0.63037  -0.41614
 Alpha  occ. eigenvalues --   -0.24282
 Alpha virt. eigenvalues --    0.01378   0.01378   0.02146   0.03280   0.05854
 Alpha virt. eigenvalues --    0.05854   0.08519   0.08519   0.08603   0.08950
 Alpha virt. eigenvalues --    0.08950   0.09065   0.14191   0.21589   0.22759

 Mulliken charges and spin densities:
               1          2
     1  Mn   0.465616   5.943870
     2  H   -0.465616   0.056130
 Sum of Mulliken charges =  -0.00000   6.00000

 Dipole moment (field-independent basis, Debye):
    X=              0.0000    Y=              0.0000    Z=             -0.0375  Tot=              0.0375
 Quadrupole moment (field-independent basis, Debye-Ang):
   XX=            -16.2517   YY=            -16.2517   ZZ=            -25.6404
   XY=              0.0000   XZ=              0.0000   YZ=              0.0000

 1\1\GINC-C504-081\SP\ROCCSD(T)-RW\Gen\H1Mn1(7)\AANNABE\25-Feb-2018\0\\
 #P ROCCSD(T)=(maxcyc=150, Window=(6,0), SaveAmplitudes, ReadAmplitudes
 )/Gen 5d 7f SCF=(maxcycles=300) Integral(NoXCTest, DKHSO) MaxDisk=500G
 B Pop=Regular Guess=Read IOp(5/15=2)\\MnH\\0,7\Mn,0,0.,0.,0.\H,0,0.,0.
 ,1.3\\Version=ES64L-G16RevA.03\State=7-SG\HF=-1157.8753818\MP2=-1158.4
 494638\MP3=-1158.4386058\PUHF=-1157.8753818\PMP2-0=-1158.4494638\MP4SD
 Q=-1158.4475885\CCSD=-1158.4478029\CCSD(T)=-1158.4634067\RMSD=7.079e-0
 9\PG=C*V [C*(H1Mn1)]\\@

 Normal termination of Gaussian 16 at Sun Feb 25 20:04:18 2018.
