 Gaussian 16, Revision A.03,
 Gaussian 16:  ES64L-G16RevA.03 25-Dec-2016

 ----------------------------------------------------------------------
 #P ROCCSD(T)=(maxcyc=150, Full, SaveAmplitudes, ReadAmplitudes)/Gen 5d
  7f SCF=(maxcycles=300) Integral(NoXCTest) MaxDisk=500GB Pop=Regular P
 seudo=Read Guess=Read IOp(5/15=2)
 ----------------------------------------------------------------------

 ---
 CrO
 ---
 Symbolic Z-matrix:
 Charge =  0 Multiplicity = 5

                         Standard orientation:
 ---------------------------------------------------------------------
 Center     Atomic      Atomic             Coordinates (Angstroms)
 Number     Number       Type             X           Y           Z
 ---------------------------------------------------------------------
      1         24           0        0.000000    0.000000    0.325000
      2          8           0        0.000000    0.000000   -0.975000
 ---------------------------------------------------------------------

 SCF Done:  E(ROHF) =  -101.886185793     A.U. after   30 cycles
 E2 =    -0.8963559511D+00 EUMP2 =    -0.10278254174405D+03
 CCSD(T)
 CCSD(T)= -0.10279611705D+03

 Unable to determine electronic state:  an orbital has unidentified symmetry.
 Alpha  occ. eigenvalues --   -3.67435  -2.44312  -2.42749  -2.40026  -1.25623
 Alpha  occ. eigenvalues --   -0.68708  -0.59950  -0.59705  -0.51335  -0.50944
 Alpha  occ. eigenvalues --   -0.35477  -0.27335
 Alpha virt. eigenvalues --    0.01299   0.02322   0.02473   0.02869   0.05177
 Alpha virt. eigenvalues --    0.06525   0.07313   0.07734   0.07738   0.07887
 Alpha virt. eigenvalues --    0.08756   0.09793   0.12250   0.17073   0.19046

 Mulliken charges and spin densities:
               1          2
     1  Cr   0.930270   3.772528
     2  O   -0.930270   0.227472
 Sum of Mulliken charges =  -0.00000   4.00000

 Dipole moment (field-independent basis, Debye):
    X=              0.0000    Y=              0.0000    Z=              1.7532  Tot=              1.7532
 Quadrupole moment (field-independent basis, Debye-Ang):
   XX=            -21.4375   YY=            -19.6959   ZZ=            -23.6221
   XY=              0.0000   XZ=              0.0000   YZ=              0.0000

 \\#P ROCCSD(T)=(maxcyc=150, Full, SaveAmplitudes, ReadAmplitudes)/Gen
 D=-102.7536461\CCSD(T)=-102.7961171\RMSD=3.371e-09\PG=C*V [C*(O1Cr1)]\
 Normal termination of Gaussian 16 at Tue Mar 13 01:58:49 2018.
