 Gaussian 16, Revision A.03,
 Gaussian 16:  ES64L-G16RevA.03 25-Dec-2016

 ----------------------------------------------------------------------
 #P ROCCSD(T)=(maxcyc=150, Full, SaveAmplitudes, ReadAmplitudes)/Gen 5d
  7f SCF=(maxcycles=300) Integral(NoXCTest) MaxDisk=500GB Pop=Regular P
 seudo=Read Guess=Read IOp(5/15=2)
 ----------------------------------------------------------------------

 ---
 MnH
 ---
 Symbolic Z-matrix:
 Charge =  0 Multiplicity = 7

                         Standard orientation:
 ---------------------------------------------------------------------
 Center     Atomic      Atomic             Coordinates (Angstroms)
 Number     Number       Type             X           Y           Z
 ---------------------------------------------------------------------
      1         25           0        0.000000    0.000000    0.076923
      2          1           0        0.000000    0.000000   -1.923077
 ---------------------------------------------------------------------

 SCF Done:  E(ROHF) =  -104.238956935     A.U. after   25 cycles
 E2 =    -0.5680856920D+00 EUMP2 =    -0.10480704262749D+03
 CCSD(T)
 CCSD(T)= -0.10483126809D+03

 The electronic state is 7-SG.
 Alpha  occ. eigenvalues --   -4.19077  -2.78066  -2.78066  -2.77795  -0.66528
 Alpha  occ. eigenvalues --   -0.66528  -0.65871  -0.65871  -0.65828  -0.38770
 Alpha  occ. eigenvalues --   -0.26972
 Alpha virt. eigenvalues --    0.01043   0.01043   0.02287   0.03135   0.05546
 Alpha virt. eigenvalues --    0.05546   0.07952   0.08376   0.08376   0.08875
 Alpha virt. eigenvalues --    0.08875   0.10352   0.13272   0.18142   0.22437

 Mulliken charges and spin densities:
               1          2
     1  Mn   0.430514   5.953006
     2  H   -0.430514   0.046994
 Sum of Mulliken charges =  -0.00000   6.00000

 Dipole moment (field-independent basis, Debye):
    X=              0.0000    Y=              0.0000    Z=              2.4528  Tot=              2.4528
 Quadrupole moment (field-independent basis, Debye-Ang):
   XX=            -16.3811   YY=            -16.3811   ZZ=            -27.9349
   XY=              0.0000   XZ=              0.0000   YZ=              0.0000

 \\#P ROCCSD(T)=(maxcyc=150, Full, SaveAmplitudes, ReadAmplitudes)/Gen
 144967\CCSD=-104.8157657\CCSD(T)=-104.8312681\RMSD=5.511e-09\PG=C*V [C
 Normal termination of Gaussian 16 at Mon Feb 26 18:42:27 2018.
