 Gaussian 16, Revision A.03,
 Gaussian 16:  ES64L-G16RevA.03 25-Dec-2016

 ----------------------------------------------------------------------
 #P ROCCSD(T)=(maxcyc=150, Full, SaveAmplitudes, ReadAmplitudes)/Gen 5d
  7f SCF=(maxcycles=300) Integral(NoXCTest) MaxDisk=500GB Pop=Regular P
 seudo=Read Guess=Read IOp(5/15=2)
 ----------------------------------------------------------------------

 ---
 CrO
 ---
 Symbolic Z-matrix:
 Charge =  0 Multiplicity = 5

                         Standard orientation:
 ---------------------------------------------------------------------
 Center     Atomic      Atomic             Coordinates (Angstroms)
 Number     Number       Type             X           Y           Z
 ---------------------------------------------------------------------
      1         24           0        0.000000    0.000000    0.400000
      2          8           0        0.000000    0.000000   -1.200000
 ---------------------------------------------------------------------

 SCF Done:  E(ROHF) =  -102.022348625     A.U. after   28 cycles
 E2 =    -0.8882357792D+00 EUMP2 =    -0.10291058440433D+03
 CCSD(T)
 CCSD(T)= -0.10293688212D+03

 Unable to determine electronic state:  an orbital has unidentified symmetry.
 Alpha  occ. eigenvalues --   -3.78871  -2.49846  -2.45849  -2.42707  -1.16459
 Alpha  occ. eigenvalues --   -0.61763  -0.58420  -0.57173  -0.47868  -0.42780
 Alpha  occ. eigenvalues --   -0.38429  -0.32048
 Alpha virt. eigenvalues --   -0.00289   0.00664   0.01697   0.03203   0.03868
 Alpha virt. eigenvalues --    0.04584   0.06124   0.07575   0.07590   0.08047
 Alpha virt. eigenvalues --    0.08083   0.08489   0.13176   0.13722   0.15866

 Mulliken charges and spin densities:
               1          2
     1  Cr   1.084901   3.859684
     2  O   -1.084901   0.140316
 Sum of Mulliken charges =  -0.00000   4.00000

 Dipole moment (field-independent basis, Debye):
    X=              0.0000    Y=              0.0000    Z=              6.2735  Tot=              6.2735
 Quadrupole moment (field-independent basis, Debye-Ang):
   XX=            -20.5120   YY=            -19.4305   ZZ=            -23.7579
   XY=              0.0000   XZ=              0.0000   YZ=              0.0000

 \\#P ROCCSD(T)=(maxcyc=150, Full, SaveAmplitudes, ReadAmplitudes)/Gen
 SD=-102.8860097\CCSD(T)=-102.9368821\RMSD=7.145e-09\PG=C*V [C*(O1Cr1)]
 Normal termination of Gaussian 16 at Mon Mar 12 14:33:04 2018.
