 Gaussian 16, Revision A.03,
 Gaussian 16:  ES64L-G16RevA.03 25-Dec-2016

 ----------------------------------------------------------------------
 #P ROCCSD(T)=(maxcyc=150, Full)/Gen 5d 7f SCF=(maxcycles=300) Integral
 (NoXCTest) MaxDisk=500GB Pop=Regular Pseudo=Read IOp(5/15=2) Guess=Rea
 d
 ----------------------------------------------------------------------

 ---
 ScH
 ---
 Symbolic Z-matrix:
 Charge =  0 Multiplicity = 1

                         Standard orientation:
 ---------------------------------------------------------------------
 Center     Atomic      Atomic             Coordinates (Angstroms)
 Number     Number       Type             X           Y           Z
 ---------------------------------------------------------------------
      1         21           0        0.000000    0.000000    0.100000
      2          1           0        0.000000    0.000000   -2.100000
 ---------------------------------------------------------------------

 SCF Done:  E(ROHF) =  -46.5769730109     A.U. after   11 cycles
 E2 =    -0.4167362570D+00 EUMP2 =    -0.46993709267885D+02
 CCSD(T)
 CCSD(T)= -0.47041574622D+02

 The electronic state is 1-SG.
 Alpha  occ. eigenvalues --   -2.72833  -1.69545  -1.69545  -1.69351  -0.35662
 Alpha  occ. eigenvalues --   -0.24623
 Alpha virt. eigenvalues --    0.00842   0.00842   0.00950   0.02086   0.02793
 Alpha virt. eigenvalues --    0.02793   0.02960   0.02960   0.03051   0.03445
 Alpha virt. eigenvalues --    0.03754   0.03754   0.06134   0.06134   0.07162

 Mulliken charges and spin densities:
               1          2
     1  Sc   0.275536   0.000000
     2  H   -0.275536   0.000000
 Sum of Mulliken charges =  -0.00000   0.00000

 Dipole moment (field-independent basis, Debye):
    X=              0.0000    Y=              0.0000    Z=              3.0129  Tot=              3.0129
 Quadrupole moment (field-independent basis, Debye-Ang):
   XX=            -22.8981   YY=            -22.8981   ZZ=            -30.0618
   XY=              0.0000   XZ=              0.0000   YZ=              0.0000

 P ROCCSD(T)=(maxcyc=150, Full)/Gen 5d 7f SCF=(maxcycles=300) Integral(
 P2-0=-46.9937093\MP4SDQ=-47.0200262\CCSD=-47.0208777\CCSD(T)=-47.04157
 Normal termination of Gaussian 16 at Wed Feb 14 12:01:41 2018.
