 Gaussian 16, Revision A.03,
 Gaussian 16:  ES64L-G16RevA.03 25-Dec-2016

 ----------------------------------------------------------------------
 #P ROCCSD(T)=(maxcyc=150, Full, SaveAmplitudes, ReadAmplitudes)/Gen 5d
  7f SCF=(maxcycles=300) Integral(NoXCTest) MaxDisk=500GB Pop=Regular P
 seudo=Read Guess=Read IOp(5/15=2)
 ----------------------------------------------------------------------

 ---
 ScO
 ---
 Symbolic Z-matrix:
 Charge =  0 Multiplicity = 2

                         Standard orientation:
 ---------------------------------------------------------------------
 Center     Atomic      Atomic             Coordinates (Angstroms)
 Number     Number       Type             X           Y           Z
 ---------------------------------------------------------------------
      1         21           0        0.000000    0.000000    0.496552
      2          8           0        0.000000    0.000000   -1.303448
 ---------------------------------------------------------------------

 SCF Done:  E(ROHF) =  -62.0612810262     A.U. after   19 cycles
 E2 =    -0.6945597099D+00 EUMP2 =    -0.62755840736106D+02
 CCSD(T)
 CCSD(T)= -0.62786278652D+02

 The electronic state is 2-SG.
 Alpha  occ. eigenvalues --   -2.74547  -1.66632  -1.65584  -1.65584  -1.10232
 Alpha  occ. eigenvalues --   -0.41460  -0.38480  -0.38480  -0.26454
 Alpha virt. eigenvalues --   -0.00461  -0.00461   0.01199   0.02109   0.03275
 Alpha virt. eigenvalues --    0.03275   0.03487   0.03487   0.04254   0.04254
 Alpha virt. eigenvalues --    0.04406   0.04993   0.07127   0.07127   0.10240

 Mulliken charges and spin densities:
               1          2
     1  Sc   1.245022   0.976005
     2  O   -1.245022   0.023995
 Sum of Mulliken charges =  -0.00000   1.00000

 Dipole moment (field-independent basis, Debye):
    X=              0.0000    Y=              0.0000    Z=              5.7828  Tot=              5.7828
 Quadrupole moment (field-independent basis, Debye-Ang):
   XX=            -21.8597   YY=            -21.8597   ZZ=            -33.4596
   XY=              0.0000   XZ=              0.0000   YZ=              0.0000

 \\#P ROCCSD(T)=(maxcyc=150, Full, SaveAmplitudes, ReadAmplitudes)/Gen
 \CCSD=-62.7427617\CCSD(T)=-62.7862787\RMSD=6.407e-10\PG=C*V [C*(O1Sc1)
 Normal termination of Gaussian 16 at Wed Feb 28 19:00:38 2018.
