 Gaussian 16, Revision A.03,
 Gaussian 16:  ES64L-G16RevA.03 25-Dec-2016

 ----------------------------------------------------------------------
 #P ROCCSD(T)=(MaxCyc=150, Full)/Gen SCF=(maxcycle=400, vshift=200) Pse
 udo=Read Integral(NoXCTest) Pop=Regular MaxDisk=500GB Guess=Read
 ----------------------------------------------------------------------

 ---
 NiO
 ---
 Symbolic Z-matrix:
 Charge =  0 Multiplicity = 3

                         Standard orientation:
 ---------------------------------------------------------------------
 Center     Atomic      Atomic             Coordinates (Angstroms)
 Number     Number       Type             X           Y           Z
 ---------------------------------------------------------------------
      1         28           0        0.000000    0.000000    0.377778
      2          8           0        0.000000    0.000000   -1.322222
 ---------------------------------------------------------------------

 SCF Done:  E(ROHF) =  -184.131097425     A.U. after   22 cycles
 E2 =    -0.1213661130D+01 EUMP2 =    -0.18534475855508D+03
 CCSD(T)
 CCSD(T)= -0.18537393983D+03

 The electronic state is 3-SG.
 Alpha  occ. eigenvalues --   -5.21469  -3.51482  -3.43199  -3.43199  -1.15498
 Alpha  occ. eigenvalues --   -0.80749  -0.80749  -0.74590  -0.71924  -0.71924
 Alpha  occ. eigenvalues --   -0.38181  -0.38181  -0.36724
 Alpha virt. eigenvalues --   -0.05536   0.01777   0.01777   0.01858   0.03882
 Alpha virt. eigenvalues --    0.06756   0.06756   0.07586   0.07960   0.07960
 Alpha virt. eigenvalues --    0.09012   0.09012   0.12660   0.14907   0.21765

 Mulliken charges and spin densities:
               1          2
     1  Ni   0.988902   1.925516
     2  O   -0.988902   0.074484
 Sum of Mulliken charges =  -0.00000   2.00000

 Dipole moment (field-independent basis, Debye):
    X=              0.0000    Y=              0.0000    Z=              8.1276  Tot=              8.1276
 Quadrupole moment (field-independent basis, Debye-Ang):
   XX=            -18.6086   YY=            -18.6086   ZZ=            -21.7983
   XY=              0.0000   XZ=              0.0000   YZ=              0.0000

 \\#P ROCCSD(T)=(MaxCyc=150, Full)/Gen SCF=(maxcycle=400, vshift=200) P
 P2-0=-185.3447586\MP4SDQ=-185.3121106\CCSD=-185.3063581\CCSD(T)=-185.3
 Normal termination of Gaussian 16 at Fri May  4 14:11:26 2018.
