 Gaussian 16, Revision A.03,
 Gaussian 16:  ES64L-G16RevA.03 25-Dec-2016

 ----------------------------------------------------------------------
 #P ROCCSD(T)=(MaxCyc=150, Full)/Gen SCF=(maxcycle=400, vshift=200) Pse
 udo=Read Integral(NoXCTest) Pop=Regular MaxDisk=500GB Guess=Read
 ----------------------------------------------------------------------

 ---
 NiO
 ---
 Symbolic Z-matrix:
 Charge =  0 Multiplicity = 3

                         Standard orientation:
 ---------------------------------------------------------------------
 Center     Atomic      Atomic             Coordinates (Angstroms)
 Number     Number       Type             X           Y           Z
 ---------------------------------------------------------------------
      1         28           0        0.000000    0.000000    0.377778
      2          8           0        0.000000    0.000000   -1.322222
 ---------------------------------------------------------------------

 SCF Done:  E(ROHF) =  -184.113820572     A.U. after   26 cycles
 E2 =    -0.1160206984D+01 EUMP2 =    -0.18527402755542D+03
 CCSD(T)
 CCSD(T)= -0.18530340477D+03

 The electronic state is 3-SG.
 Alpha  occ. eigenvalues --   -5.18963  -3.53073  -3.44830  -3.44830  -1.15546
 Alpha  occ. eigenvalues --   -0.80686  -0.80686  -0.74548  -0.71904  -0.71904
 Alpha  occ. eigenvalues --   -0.38179  -0.38179  -0.36731
 Alpha virt. eigenvalues --   -0.05538   0.02128   0.02134   0.02134   0.04301
 Alpha virt. eigenvalues --    0.07852   0.07852   0.10573   0.12060   0.12060
 Alpha virt. eigenvalues --    0.13189   0.13189   0.15291   0.16081   0.26236

 Mulliken charges and spin densities:
               1          2
     1  Ni   1.064684   1.924862
     2  O   -1.064684   0.075138
 Sum of Mulliken charges =  -0.00000   2.00000

 Dipole moment (field-independent basis, Debye):
    X=              0.0000    Y=              0.0000    Z=              8.1395  Tot=              8.1395
 Quadrupole moment (field-independent basis, Debye-Ang):
   XX=            -18.6269   YY=            -18.6269   ZZ=            -21.8242
   XY=              0.0000   XZ=              0.0000   YZ=              0.0000

 \\#P ROCCSD(T)=(MaxCyc=150, Full)/Gen SCF=(maxcycle=400, vshift=200) P
 PMP2-0=-185.2740276\MP4SDQ=-185.2460411\CCSD=-185.2384599\CCSD(T)=-185
 Normal termination of Gaussian 16 at Fri Aug 17 12:04:47 2018.
