 Gaussian 16, Revision A.03,
 Gaussian 16:  ES64L-G16RevA.03 25-Dec-2016

 ----------------------------------------------------------------------
 #P ROCCSD(T)=(MaxCyc=150, Full)/Gen SCF=(maxcycle=400, vshift=200) Pse
 udo=Read Integral(NoXCTest) Pop=Regular MaxDisk=500GB Guess=Read
 ----------------------------------------------------------------------

 ---
 NiO
 ---
 Symbolic Z-matrix:
 Charge =  0 Multiplicity = 3

                         Standard orientation:
 ---------------------------------------------------------------------
 Center     Atomic      Atomic             Coordinates (Angstroms)
 Number     Number       Type             X           Y           Z
 ---------------------------------------------------------------------
      1         28           0        0.000000    0.000000    0.377778
      2          8           0        0.000000    0.000000   -1.322222
 ---------------------------------------------------------------------

 SCF Done:  E(ROHF) =  -184.127492922     A.U. after   24 cycles
 E2 =    -0.1156434069D+01 EUMP2 =    -0.18528392699053D+03
 CCSD(T)
 CCSD(T)= -0.18531507364D+03

 The electronic state is 3-SG.
 Alpha  occ. eigenvalues --   -5.21475  -3.51503  -3.43214  -3.43214  -1.15538
 Alpha  occ. eigenvalues --   -0.80753  -0.80753  -0.74596  -0.71925  -0.71925
 Alpha  occ. eigenvalues --   -0.38172  -0.38172  -0.36738
 Alpha virt. eigenvalues --   -0.05549   0.02125   0.02132   0.02132   0.04302
 Alpha virt. eigenvalues --    0.07849   0.07849   0.10571   0.12059   0.12059
 Alpha virt. eigenvalues --    0.13189   0.13189   0.15290   0.16079   0.26237

 Mulliken charges and spin densities:
               1          2
     1  Ni   1.064059   1.924915
     2  O   -1.064059   0.075085
 Sum of Mulliken charges =  -0.00000   2.00000

 Dipole moment (field-independent basis, Debye):
    X=              0.0000    Y=              0.0000    Z=              8.1432  Tot=              8.1432
 Quadrupole moment (field-independent basis, Debye-Ang):
   XX=            -18.6171   YY=            -18.6171   ZZ=            -21.8146
   XY=              0.0000   XZ=              0.0000   YZ=              0.0000

 \\#P ROCCSD(T)=(MaxCyc=150, Full)/Gen SCF=(maxcycle=400, vshift=200) P
 MP2-0=-185.283927\MP4SDQ=-185.2571468\CCSD=-185.2502312\CCSD(T)=-185.3
 Normal termination of Gaussian 16 at Fri May  4 11:38:02 2018.
