 Gaussian 16, Revision A.03,
 Gaussian 16:  ES64L-G16RevA.03 25-Dec-2016

 ----------------------------------------------------------------------
 #P ROCCSD(T)=(MaxCyc=150, Full)/Gen SCF=(maxcycle=400, vshift=200) Pse
 udo=Read Integral(NoXCTest) Pop=Regular MaxDisk=500GB Guess=Read
 ----------------------------------------------------------------------

 ---
 NiO
 ---
 Symbolic Z-matrix:
 Charge =  0 Multiplicity = 3

                         Standard orientation:
 ---------------------------------------------------------------------
 Center     Atomic      Atomic             Coordinates (Angstroms)
 Number     Number       Type             X           Y           Z
 ---------------------------------------------------------------------
      1         28           0        0.000000    0.000000    0.377778
      2          8           0        0.000000    0.000000   -1.322222
 ---------------------------------------------------------------------

 SCF Done:  E(ROHF) =  -184.117286064     A.U. after   21 cycles
 E2 =    -0.1217308858D+01 EUMP2 =    -0.18533459492175D+03
 CCSD(T)
 CCSD(T)= -0.18536201109D+03

 The electronic state is 3-SG.
 Alpha  occ. eigenvalues --   -5.18953  -3.53050  -3.44813  -3.44813  -1.15505
 Alpha  occ. eigenvalues --   -0.80683  -0.80683  -0.74542  -0.71904  -0.71904
 Alpha  occ. eigenvalues --   -0.38188  -0.38188  -0.36717
 Alpha virt. eigenvalues --   -0.05525   0.01778   0.01778   0.01861   0.03881
 Alpha virt. eigenvalues --    0.06758   0.06758   0.07587   0.07960   0.07960
 Alpha virt. eigenvalues --    0.09013   0.09013   0.12661   0.14910   0.21774

 Mulliken charges and spin densities:
               1          2
     1  Ni   0.988618   1.925375
     2  O   -0.988618   0.074625
 Sum of Mulliken charges =  -0.00000   2.00000

 Dipole moment (field-independent basis, Debye):
    X=              0.0000    Y=              0.0000    Z=              8.1238  Tot=              8.1238
 Quadrupole moment (field-independent basis, Debye-Ang):
   XX=            -18.6184   YY=            -18.6184   ZZ=            -21.8081
   XY=              0.0000   XZ=              0.0000   YZ=              0.0000

 \\#P ROCCSD(T)=(MaxCyc=150, Full)/Gen SCF=(maxcycle=400, vshift=200) P
 PMP2-0=-185.3345949\MP4SDQ=-185.3007345\CCSD=-185.2943259\CCSD(T)=-185
 Normal termination of Gaussian 16 at Fri Aug 17 13:05:59 2018.
