 Gaussian 16, Revision A.03,
 Gaussian 16:  ES64L-G16RevA.03 25-Dec-2016

 ----------------------------------------------------------------------
 #P ROCCSD(T)=(maxcyc=150, Full, SaveAmplitudes, ReadAmplitudes)/Gen 5d
  7f SCF=(maxcycles=300) Integral(NoXCTest) MaxDisk=500GB Pop=Regular P
 seudo=Read Guess=Read
 ----------------------------------------------------------------------

 ---
 MnH
 ---
 Symbolic Z-matrix:
 Charge =  0 Multiplicity = 7

                         Standard orientation:
 ---------------------------------------------------------------------
 Center     Atomic      Atomic             Coordinates (Angstroms)
 Number     Number       Type             X           Y           Z
 ---------------------------------------------------------------------
      1         25           0        0.000000    0.000000    0.057692
      2          1           0        0.000000    0.000000   -1.442308
 ---------------------------------------------------------------------

 SCF Done:  E(ROHF) =  -104.227028434     A.U. after   18 cycles
 E2 =    -0.6077396690D+00 EUMP2 =    -0.10483476810331D+03
 CCSD(T)
 CCSD(T)= -0.10485517158D+03

 The electronic state is 7-SG.
 Alpha  occ. eigenvalues --   -4.17080  -2.75960  -2.75936  -2.75936  -0.65354
 Alpha  occ. eigenvalues --   -0.64545  -0.64545  -0.63993  -0.63993  -0.41950
 Alpha  occ. eigenvalues --   -0.25237
 Alpha virt. eigenvalues --    0.01311   0.01311   0.02066   0.03014   0.05179
 Alpha virt. eigenvalues --    0.05179   0.05675   0.05823   0.05823   0.06194
 Alpha virt. eigenvalues --    0.06194   0.08694   0.13810   0.14449   0.18028

 Mulliken charges and spin densities:
               1          2
     1  Mn   0.372592   5.939371
     2  H   -0.372592   0.060629
 Sum of Mulliken charges =  -0.00000   6.00000

 Dipole moment (field-independent basis, Debye):
    X=              0.0000    Y=              0.0000    Z=              0.6327  Tot=              0.6327
 Quadrupole moment (field-independent basis, Debye-Ang):
   XX=            -15.9572   YY=            -15.9572   ZZ=            -25.5924
   XY=              0.0000   XZ=              0.0000   YZ=              0.0000

 \\#P ROCCSD(T)=(maxcyc=150, Full, SaveAmplitudes, ReadAmplitudes)/Gen
 4.2270284\PMP2-0=-104.8347681\CCSD=-104.8382254\CCSD(T)=-104.8551716\R
 Normal termination of Gaussian 16 at Mon Feb 26 06:39:01 2018.
