 Gaussian 16, Revision A.03,
 Gaussian 16:  ES64L-G16RevA.03 25-Dec-2016

 ----------------------------------------------------------------------
 #P ROCCSD(T)=(maxcyc=150, Full, SaveAmplitudes, ReadAmplitudes)/Gen 5d
  7f SCF=(maxcycles=300) Integral(NoXCTest) MaxDisk=500GB Pop=Regular P
 seudo=Read Guess=Read IOp(5/15=2)
 ----------------------------------------------------------------------

 ---
 TiO
 ---
 Symbolic Z-matrix:
 Charge =  0 Multiplicity = 3

                         Standard orientation:
 ---------------------------------------------------------------------
 Center     Atomic      Atomic             Coordinates (Angstroms)
 Number     Number       Type             X           Y           Z
 ---------------------------------------------------------------------
      1         22           0        0.000000    0.000000    0.373333
      2          8           0        0.000000    0.000000   -1.026667
 ---------------------------------------------------------------------

 SCF Done:  E(ROHF) =  -73.4700457402     A.U. after   22 cycles
 E2 =    -0.7450858135D+00 EUMP2 =    -0.74215131553705D+02
 CCSD(T)
 CCSD(T)= -0.74240966771D+02

 Unable to determine electronic state:  an orbital has unidentified symmetry.
 Alpha  occ. eigenvalues --   -2.98823  -1.90660  -1.83771  -1.83771  -1.16398
 Alpha  occ. eigenvalues --   -0.53432  -0.53432  -0.50229  -0.38559  -0.23410
 Alpha virt. eigenvalues --    0.00986   0.00986   0.02194   0.02531   0.04611
 Alpha virt. eigenvalues --    0.04611   0.04995   0.05111   0.05282   0.05817
 Alpha virt. eigenvalues --    0.05817   0.08083   0.11540   0.12978   0.14348

 Mulliken charges and spin densities:
               1          2
     1  Ti   0.824992   2.021930
     2  O   -0.824992  -0.021930
 Sum of Mulliken charges =  -0.00000   2.00000

 Dipole moment (field-independent basis, Debye):
    X=              0.0000    Y=              0.0000    Z=              1.9503  Tot=              1.9503
 Quadrupole moment (field-independent basis, Debye-Ang):
   XX=            -21.6292   YY=            -21.6292   ZZ=            -27.7618
   XY=              0.0000   XZ=              0.0000   YZ=              0.0000

 \\#P ROCCSD(T)=(maxcyc=150, Full, SaveAmplitudes, ReadAmplitudes)/Gen
 .2031292\CCSD(T)=-74.2409668\RMSD=9.429e-09\PG=C*V [C*(O1Ti1)]\\@
 Normal termination of Gaussian 16 at Mon Mar 12 14:21:54 2018.
