 Gaussian 16, Revision A.03,
 Gaussian 16:  ES64L-G16RevA.03 25-Dec-2016

 ----------------------------------------------------------------------
 #P ROCCSD(T)=(MaxCyc=150, Full)/Gen SCF=(maxcycle=400) Integral(DKHSO,
  NoXCTest) Pop=Regular MaxDisk=500GB Guess=Read IOp(5/15=2)
 ----------------------------------------------------------------------

 ---
 CoO
 ---
 Symbolic Z-matrix:
 Charge =  0 Multiplicity = 4

                         Standard orientation:
 ---------------------------------------------------------------------
 Center     Atomic      Atomic             Coordinates (Angstroms)
 Number     Number       Type             X           Y           Z
 ---------------------------------------------------------------------
      1         27           0        0.000000    0.000000    0.388571
      2          8           0        0.000000    0.000000   -1.311429
 ---------------------------------------------------------------------

 SCF Done:  E(ROHF) =  -1466.70930813     A.U. after   26 cycles
 E2 =    -0.1527124397D+01 EUMP2 =    -0.14682364325243D+04
 CCSD(T)
 CCSD(T)= -0.14682424464D+04

 Unable to determine electronic state:  partially filled degenerate orbitals.
 Alpha  occ. eigenvalues -- -285.82280 -35.55650 -30.32404 -30.32404 -30.32051
 Alpha  occ. eigenvalues --  -20.49123  -4.79374  -3.22891  -3.22703  -3.22703
 Alpha  occ. eigenvalues --   -1.14222  -0.76454  -0.76454  -0.75743  -0.70694
 Alpha  occ. eigenvalues --   -0.68248  -0.38227  -0.38227  -0.35767
 Alpha virt. eigenvalues --   -0.04994   0.02034   0.02034   0.02184   0.04181
 Alpha virt. eigenvalues --    0.07655   0.07655   0.09839   0.10719   0.10747
 Alpha virt. eigenvalues --    0.11639   0.11639   0.14829   0.15367   0.26065

 Mulliken charges and spin densities:
               1          2
     1  Co   1.038792   2.932818
     2  O   -1.038792   0.067182
 Sum of Mulliken charges =  -0.00000   3.00000

 Dipole moment (field-independent basis, Debye):
    X=              0.0000    Y=              0.0000    Z=              7.9890  Tot=              7.9890
 Quadrupole moment (field-independent basis, Debye-Ang):
   XX=            -19.3164   YY=            -19.3164   ZZ=            -22.5211
   XY=              0.0000   XZ=              0.0000   YZ=              0.0000

 \\#P ROCCSD(T)=(MaxCyc=150, Full)/Gen SCF=(maxcycle=400) Integral(DKHS
 .2364325\MP4SDQ=-1468.1972744\CCSD=-1468.1852345\CCSD(T)=-1468.2424464
 Normal termination of Gaussian 16 at Sat Mar 31 14:21:24 2018.
