 Gaussian 16, Revision A.03,
 Gaussian 16:  ES64L-G16RevA.03 25-Dec-2016

 ----------------------------------------------------------------------
 #P ROCCSD(T)=(maxcyc=150, Full, SaveAmplitudes, ReadAmplitudes)/Gen 5d
  7f SCF=(maxcycles=300) Integral(NoXCTest) MaxDisk=500GB Pop=Regular P
 seudo=Read Guess=Read
 ----------------------------------------------------------------------

 ---
 ScO
 ---
 Symbolic Z-matrix:
 Charge =  0 Multiplicity = 2

                         Standard orientation:
 ---------------------------------------------------------------------
 Center     Atomic      Atomic             Coordinates (Angstroms)
 Number     Number       Type             X           Y           Z
 ---------------------------------------------------------------------
      1         21           0        0.000000    0.000000    0.386207
      2          8           0        0.000000    0.000000   -1.013793
 ---------------------------------------------------------------------

 SCF Done:  E(ROHF) =  -61.7613258449     A.U. after   15 cycles
 E2 =    -0.7014543413D+00 EUMP2 =    -0.62462780186224D+02
 CCSD(T)
 CCSD(T)= -0.62487302453D+02

 The electronic state is 2-SG.
 Alpha  occ. eigenvalues --   -2.58957  -1.71939  -1.55347  -1.55347  -1.08671
 Alpha  occ. eigenvalues --   -0.52672  -0.52672  -0.46242  -0.20933
 Alpha virt. eigenvalues --    0.00812   0.00812   0.02027   0.02046   0.02790
 Alpha virt. eigenvalues --    0.02790   0.02940   0.02940   0.02970   0.03941
 Alpha virt. eigenvalues --    0.03941   0.06238   0.07890   0.07890   0.08886

 Mulliken charges and spin densities:
               1          2
     1  Sc   1.119503   1.013284
     2  O   -1.119503  -0.013284
 Sum of Mulliken charges =  -0.00000   1.00000

 Dipole moment (field-independent basis, Debye):
    X=              0.0000    Y=              0.0000    Z=              1.4763  Tot=              1.4763
 Quadrupole moment (field-independent basis, Debye-Ang):
   XX=            -22.3892   YY=            -22.3892   ZZ=            -30.3303
   XY=              0.0000   XZ=              0.0000   YZ=              0.0000

 \\#P ROCCSD(T)=(maxcyc=150, Full, SaveAmplitudes, ReadAmplitudes)/Gen
 613258\PMP2-0=-62.4627802\CCSD=-62.453223\CCSD(T)=-62.4873025\RMSD=5.9
 Normal termination of Gaussian 16 at Wed Feb 21 00:53:36 2018.
