 Gaussian 16, Revision A.03,
 Gaussian 16:  ES64L-G16RevA.03 25-Dec-2016

 ----------------------------------------------------------------------
 #P ROCCSD(T)=(maxcyc=150, Full, SaveAmplitudes, ReadAmplitudes)/Gen 5d
  7f SCF=(maxcycles=300) Integral(NoXCTest) MaxDisk=500GB Pop=Regular P
 seudo=Read Guess=Read
 ----------------------------------------------------------------------

 ---
 TiO
 ---
 Symbolic Z-matrix:
 Charge =  0 Multiplicity = 3

                         Standard orientation:
 ---------------------------------------------------------------------
 Center     Atomic      Atomic             Coordinates (Angstroms)
 Number     Number       Type             X           Y           Z
 ---------------------------------------------------------------------
      1         22           0        0.000000    0.000000    0.480000
      2          8           0        0.000000    0.000000   -1.320000
 ---------------------------------------------------------------------

 SCF Done:  E(ROHF) =  -73.2439151428     A.U. after   21 cycles
 E2 =    -0.7814200258D+00 EUMP2 =    -0.74025335168610D+02
 CCSD(T)
 CCSD(T)= -0.74057449122D+02

 Unable to determine electronic state:  an orbital has unidentified symmetry.
 Alpha  occ. eigenvalues --   -3.05158  -1.96176  -1.96176  -1.92114  -1.13148
 Alpha  occ. eigenvalues --   -0.50415  -0.43359  -0.39624  -0.39624  -0.28668
 Alpha virt. eigenvalues --   -0.00484  -0.00484   0.00672   0.02096   0.03108
 Alpha virt. eigenvalues --    0.03108   0.03584   0.03651   0.03706   0.04317
 Alpha virt. eigenvalues --    0.04317   0.04661   0.07340   0.09975   0.10803

 Mulliken charges and spin densities:
               1          2
     1  Ti   1.018487   1.974398
     2  O   -1.018487   0.025602
 Sum of Mulliken charges =  -0.00000   2.00000

 Dipole moment (field-independent basis, Debye):
    X=              0.0000    Y=              0.0000    Z=              6.0719  Tot=              6.0719
 Quadrupole moment (field-independent basis, Debye-Ang):
   XX=            -21.6682   YY=            -21.6682   ZZ=            -30.3158
   XY=              0.0000   XZ=              0.0000   YZ=              0.0000

 \\#P ROCCSD(T)=(maxcyc=150, Full, SaveAmplitudes, ReadAmplitudes)/Gen
 -0=-74.0253352\CCSD=-74.0034573\CCSD(T)=-74.0574491\RMSD=6.000e-09\PG=
 Normal termination of Gaussian 16 at Fri Mar  9 16:45:00 2018.
