 Gaussian 16, Revision A.03,
 Gaussian 16:  ES64L-G16RevA.03 25-Dec-2016

 ----------------------------------------------------------------------
 #P ROCCSD(T)=(maxcyc=150, Full)/Gen 5d 7f SCF=(maxcycles=300) Integral
 (NoXCTest) MaxDisk=500GB Pop=Regular Pseudo=Read Guess=Read
 ----------------------------------------------------------------------

 ---
 ScH
 ---
 Symbolic Z-matrix:
 Charge =  0 Multiplicity = 1

                         Standard orientation:
 ---------------------------------------------------------------------
 Center     Atomic      Atomic             Coordinates (Angstroms)
 Number     Number       Type             X           Y           Z
 ---------------------------------------------------------------------
      1         21           0        0.000000    0.000000    0.068182
      2          1           0        0.000000    0.000000   -1.431818
 ---------------------------------------------------------------------

 SCF Done:  E(ROHF) =  -46.6433133294     A.U. after   11 cycles
 E2 =    -0.4272316179D+00 EUMP2 =    -0.47070544947335D+02
 CCSD(T)
 CCSD(T)= -0.47111166576D+02

 The electronic state is 1-SG.
 Alpha  occ. eigenvalues --   -2.65445  -1.64275  -1.63288  -1.63288  -0.44177
 Alpha  occ. eigenvalues --   -0.22246
 Alpha virt. eigenvalues --    0.01232   0.01232   0.01549   0.01903   0.02879
 Alpha virt. eigenvalues --    0.02879   0.02902   0.02902   0.02916   0.04285
 Alpha virt. eigenvalues --    0.04285   0.04436   0.07859   0.07890   0.07890

 Mulliken charges and spin densities:
               1          2
     1  Sc   0.282731   0.000000
     2  H   -0.282731   0.000000
 Sum of Mulliken charges =  -0.00000   0.00000

 Dipole moment (field-independent basis, Debye):
    X=              0.0000    Y=              0.0000    Z=              0.7936  Tot=              0.7936
 Quadrupole moment (field-independent basis, Debye-Ang):
   XX=            -23.3426   YY=            -23.3426   ZZ=            -24.5506
   XY=              0.0000   XZ=              0.0000   YZ=              0.0000

 P ROCCSD(T)=(maxcyc=150, Full)/Gen 5d 7f SCF=(maxcycles=300) Integral(
 705449\MP4SDQ=-47.0927213\CCSD=-47.0922933\CCSD(T)=-47.1111666\RMSD=1.
 Normal termination of Gaussian 16 at Mon Feb 12 23:45:11 2018.
