 Gaussian 16, Revision A.03,
 Gaussian 16:  ES64L-G16RevA.03 25-Dec-2016

 ----------------------------------------------------------------------
 #P ROCCSD(T)=(maxcyc=150, Full, SaveAmplitudes, ReadAmplitudes)/Gen 5d
  7f SCF=(maxcycles=300) Integral(NoXCTest) MaxDisk=500GB Pop=Regular P
 seudo=Read Guess=Read
 ----------------------------------------------------------------------

 ---
 TiO
 ---
 Symbolic Z-matrix:
 Charge =  0 Multiplicity = 3

                         Standard orientation:
 ---------------------------------------------------------------------
 Center     Atomic      Atomic             Coordinates (Angstroms)
 Number     Number       Type             X           Y           Z
 ---------------------------------------------------------------------
      1         22           0        0.000000    0.000000    0.480000
      2          8           0        0.000000    0.000000   -1.320000
 ---------------------------------------------------------------------

 SCF Done:  E(ROHF) =  -73.3740595178     A.U. after   21 cycles
 E2 =    -0.7816447511D+00 EUMP2 =    -0.74155704268869D+02
 CCSD(T)
 CCSD(T)= -0.74188343745D+02

 Unable to determine electronic state:  an orbital has unidentified symmetry.
 Alpha  occ. eigenvalues --   -3.07043  -1.95779  -1.95779  -1.91698  -1.13964
 Alpha  occ. eigenvalues --   -0.50716  -0.43307  -0.39540  -0.39540  -0.28713
 Alpha virt. eigenvalues --   -0.00484  -0.00484   0.00675   0.02093   0.03108
 Alpha virt. eigenvalues --    0.03108   0.03585   0.03654   0.03705   0.04317
 Alpha virt. eigenvalues --    0.04317   0.04662   0.07374   0.09966   0.10810

 Mulliken charges and spin densities:
               1          2
     1  Ti   1.019898   1.976391
     2  O   -1.019898   0.023609
 Sum of Mulliken charges =  -0.00000   2.00000

 Dipole moment (field-independent basis, Debye):
    X=              0.0000    Y=              0.0000    Z=              6.0775  Tot=              6.0775
 Quadrupole moment (field-independent basis, Debye-Ang):
   XX=            -21.6051   YY=            -21.6051   ZZ=            -30.2753
   XY=              0.0000   XZ=              0.0000   YZ=              0.0000

 \\#P ROCCSD(T)=(maxcyc=150, Full, SaveAmplitudes, ReadAmplitudes)/Gen
 -0=-74.1557043\CCSD=-74.1340949\CCSD(T)=-74.1883437\RMSD=1.176e-09\PG=
 Normal termination of Gaussian 16 at Sat Mar 10 19:40:05 2018.
