 Gaussian 16, Revision A.03,
 Gaussian 16:  ES64L-G16RevA.03 25-Dec-2016

 ----------------------------------------------------------------------
 #P ROCCSD(T)=(maxcyc=150, Full, SaveAmplitudes, ReadAmplitudes)/Gen 5d
  7f SCF=(maxcycles=300) Integral(NoXCTest) MaxDisk=500GB Pop=Regular P
 seudo=Read Guess=Read IOp(5/15=2)
 ----------------------------------------------------------------------

 ---
 MnO
 ---
 Symbolic Z-matrix:
 Charge =  0 Multiplicity = 6

                         Standard orientation:
 ---------------------------------------------------------------------
 Center     Atomic      Atomic             Coordinates (Angstroms)
 Number     Number       Type             X           Y           Z
 ---------------------------------------------------------------------
      1         25           0        0.000000    0.000000    0.436364
      2          8           0        0.000000    0.000000   -1.363636
 ---------------------------------------------------------------------

 SCF Done:  E(ROHF) =  -119.163541281     A.U. after   32 cycles
 E2 =    -0.8874289209D+00 EUMP2 =    -0.12005097020234D+03
 CCSD(T)
 CCSD(T)= -0.12008038277D+03

 The electronic state is 6-SG.
 Alpha  occ. eigenvalues --   -4.16443  -2.81325  -2.81325  -2.80784  -1.10629
 Alpha  occ. eigenvalues --   -0.65188  -0.65188  -0.64915  -0.64915  -0.61729
 Alpha  occ. eigenvalues --   -0.33742  -0.33742  -0.33247
 Alpha virt. eigenvalues --   -0.05244   0.01396   0.01396   0.01639   0.03827
 Alpha virt. eigenvalues --    0.06435   0.06435   0.08193   0.08357   0.08357
 Alpha virt. eigenvalues --    0.09460   0.09460   0.12842   0.14029   0.22652

 Mulliken charges and spin densities:
               1          2
     1  Mn   1.125503   4.927110
     2  O   -1.125503   0.072890
 Sum of Mulliken charges =  -0.00000   5.00000

 Dipole moment (field-independent basis, Debye):
    X=              0.0000    Y=              0.0000    Z=              9.4584  Tot=              9.4584
 Quadrupole moment (field-independent basis, Debye-Ang):
   XX=            -19.0472   YY=            -19.0472   ZZ=            -24.5940
   XY=              0.0000   XZ=              0.0000   YZ=              0.0000

 \\#P ROCCSD(T)=(maxcyc=150, Full, SaveAmplitudes, ReadAmplitudes)/Gen
 0498051\CCSD=-120.0397106\CCSD(T)=-120.0803828\RMSD=9.353e-09\PG=C*V [
 Normal termination of Gaussian 16 at Fri Mar  9 17:24:12 2018.
