 Gaussian 16, Revision A.03,
 Gaussian 16:  ES64L-G16RevA.03 25-Dec-2016

 ----------------------------------------------------------------------
 #P ROCCSD(T)=(maxcyc=150, Full, SaveAmplitudes, ReadAmplitudes)/Gen 5d
  7f SCF=(maxcycles=300) Integral(NoXCTest) MaxDisk=500GB Pop=Regular P
 seudo=Read Guess=Read
 ----------------------------------------------------------------------

 ---
 TiO
 ---
 Symbolic Z-matrix:
 Charge =  0 Multiplicity = 3

                         Standard orientation:
 ---------------------------------------------------------------------
 Center     Atomic      Atomic             Coordinates (Angstroms)
 Number     Number       Type             X           Y           Z
 ---------------------------------------------------------------------
      1         22           0        0.000000    0.000000    0.400000
      2          8           0        0.000000    0.000000   -1.100000
 ---------------------------------------------------------------------

 SCF Done:  E(ROHF) =  -73.3038247322     A.U. after   20 cycles
 E2 =    -0.7728941604D+00 EUMP2 =    -0.74076718892560D+02
 CCSD(T)
 CCSD(T)= -0.74100850765D+02

 Unable to determine electronic state:  an orbital has unidentified symmetry.
 Alpha  occ. eigenvalues --   -2.97368  -1.90437  -1.88252  -1.88252  -1.17039
 Alpha  occ. eigenvalues --   -0.49034  -0.49034  -0.48579  -0.42152  -0.24794
 Alpha virt. eigenvalues --    0.00698   0.00698   0.01751   0.02356   0.03740
 Alpha virt. eigenvalues --    0.03802   0.03859   0.03859   0.04078   0.04189
 Alpha virt. eigenvalues --    0.04189   0.06074   0.09760   0.10465   0.11520

 Mulliken charges and spin densities:
               1          2
     1  Ti   1.056100   1.971112
     2  O   -1.056100   0.028888
 Sum of Mulliken charges =  -0.00000   2.00000

 Dipole moment (field-independent basis, Debye):
    X=              0.0000    Y=              0.0000    Z=              3.0650  Tot=              3.0650
 Quadrupole moment (field-independent basis, Debye-Ang):
   XX=            -21.5836   YY=            -21.5836   ZZ=            -28.4231
   XY=              0.0000   XZ=              0.0000   YZ=              0.0000

 \\#P ROCCSD(T)=(maxcyc=150, Full, SaveAmplitudes, ReadAmplitudes)/Gen
 -0=-74.0767189\CCSD=-74.058321\CCSD(T)=-74.1008508\RMSD=4.483e-09\PG=C
 Normal termination of Gaussian 16 at Sat Mar 10 01:21:28 2018.
