 Gaussian 16, Revision A.03,
 Gaussian 16:  ES64L-G16RevA.03 25-Dec-2016

 ----------------------------------------------------------------------
 #P ROCCSD(T)=(maxcyc=150, Full)/Gen 5d 7f SCF=(maxcycles=300) Integral
 (NoXCTest) MaxDisk=500GB Pop=Regular Pseudo=Read IOp(5/15=2) Guess=Rea
 d
 ----------------------------------------------------------------------

 ---
 ScH
 ---
 Symbolic Z-matrix:
 Charge =  0 Multiplicity = 1

                         Standard orientation:
 ---------------------------------------------------------------------
 Center     Atomic      Atomic             Coordinates (Angstroms)
 Number     Number       Type             X           Y           Z
 ---------------------------------------------------------------------
      1         21           0        0.000000    0.000000    0.045455
      2          1           0        0.000000    0.000000   -0.954545
 ---------------------------------------------------------------------

 SCF Done:  E(ROHF) =  -46.5120869773     A.U. after   10 cycles
 E2 =    -0.4454144293D+00 EUMP2 =    -0.46957501406585D+02
 CCSD(T)
 CCSD(T)= -0.46992574738D+02

 The electronic state is 1-SG.
 Alpha  occ. eigenvalues --   -2.66568  -1.65904  -1.55706  -1.55706  -0.47498
 Alpha  occ. eigenvalues --   -0.21302
 Alpha virt. eigenvalues --    0.01186   0.01332   0.01332   0.01714   0.02606
 Alpha virt. eigenvalues --    0.02606   0.02618   0.02643   0.02643   0.04003
 Alpha virt. eigenvalues --    0.04433   0.04433   0.07187   0.07432   0.07432

 Mulliken charges and spin densities:
               1          2
     1  Sc   0.165844   0.000000
     2  H   -0.165844   0.000000
 Sum of Mulliken charges =  -0.00000   0.00000

 Dipole moment (field-independent basis, Debye):
    X=              0.0000    Y=              0.0000    Z=              1.2568  Tot=              1.2568
 Quadrupole moment (field-independent basis, Debye-Ang):
   XX=            -23.4882   YY=            -23.4882   ZZ=            -22.0599
   XY=              0.0000   XZ=              0.0000   YZ=              0.0000

 P ROCCSD(T)=(maxcyc=150, Full)/Gen 5d 7f SCF=(maxcycles=300) Integral(
 2-0=-46.9575014\MP4SDQ=-46.9742502\CCSD=-46.9741514\CCSD(T)=-46.992574
 Normal termination of Gaussian 16 at Tue Feb 13 16:59:28 2018.
