 Gaussian 16, Revision A.03,
 Gaussian 16:  ES64L-G16RevA.03 25-Dec-2016

 ----------------------------------------------------------------------
 #P ROCCSD(T)=(maxcyc=150, Full, SaveAmplitudes, ReadAmplitudes)/Gen 5d
  7f SCF=(maxcycles=300) Integral(NoXCTest) MaxDisk=500GB Pop=Regular P
 seudo=Read Guess=Read IOp(5/15=2)
 ----------------------------------------------------------------------

 ---
 MnO
 ---
 Symbolic Z-matrix:
 Charge =  0 Multiplicity = 6

                         Standard orientation:
 ---------------------------------------------------------------------
 Center     Atomic      Atomic             Coordinates (Angstroms)
 Number     Number       Type             X           Y           Z
 ---------------------------------------------------------------------
      1         25           0        0.000000    0.000000    0.387879
      2          8           0        0.000000    0.000000   -1.212121
 ---------------------------------------------------------------------

 SCF Done:  E(ROHF) =  -119.169375808     A.U. after   28 cycles
 E2 =    -0.9049983543D+00 EUMP2 =    -0.12007437416224D+03
 CCSD(T)
 CCSD(T)= -0.12010146567D+03

 The electronic state is 6-SG.
 Alpha  occ. eigenvalues --   -4.22220  -2.77634  -2.77634  -2.76711  -1.14600
 Alpha  occ. eigenvalues --   -0.64560  -0.64560  -0.62695  -0.62695  -0.56767
 Alpha  occ. eigenvalues --   -0.35103  -0.35103  -0.33973
 Alpha virt. eigenvalues --   -0.03312   0.01785   0.01785   0.02272   0.03836
 Alpha virt. eigenvalues --    0.06918   0.06918   0.08318   0.08553   0.08553
 Alpha virt. eigenvalues --    0.09674   0.09674   0.13710   0.13930   0.23342

 Mulliken charges and spin densities:
               1          2
     1  Mn   1.140400   4.853192
     2  O   -1.140400   0.146808
 Sum of Mulliken charges =  -0.00000   5.00000

 Dipole moment (field-independent basis, Debye):
    X=              0.0000    Y=              0.0000    Z=              8.2659  Tot=              8.2659
 Quadrupole moment (field-independent basis, Debye-Ang):
   XX=            -18.8464   YY=            -18.8464   ZZ=            -23.0504
   XY=              0.0000   XZ=              0.0000   YZ=              0.0000

 \\#P ROCCSD(T)=(maxcyc=150, Full, SaveAmplitudes, ReadAmplitudes)/Gen
 .0694875\CCSD=-120.059995\CCSD(T)=-120.1014657\RMSD=9.223e-09\PG=C*V [
 Normal termination of Gaussian 16 at Tue Mar 13 14:27:07 2018.
