 Gaussian 16, Revision A.03,
 Gaussian 16:  ES64L-G16RevA.03 25-Dec-2016

 ----------------------------------------------------------------------
 #P ROCCSD(T)=(maxcyc=150, Full, SaveAmplitudes, ReadAmplitudes)/Gen 5d
  7f SCF=(maxcycles=300) Integral(NoXCTest) MaxDisk=500GB Pop=Regular P
 seudo=Read Guess=Read IOp(5/15=2)
 ----------------------------------------------------------------------

 ---
 TiO
 ---
 Symbolic Z-matrix:
 Charge =  0 Multiplicity = 3

                         Standard orientation:
 ---------------------------------------------------------------------
 Center     Atomic      Atomic             Coordinates (Angstroms)
 Number     Number       Type             X           Y           Z
 ---------------------------------------------------------------------
      1         22           0        0.000000    0.000000    0.480000
      2          8           0        0.000000    0.000000   -1.320000
 ---------------------------------------------------------------------

 SCF Done:  E(ROHF) =  -73.2435640741     A.U. after   21 cycles
 E2 =    -0.7504315966D+00 EUMP2 =    -0.73993995670634D+02
 CCSD(T)
 CCSD(T)= -0.74028695923D+02

 Unable to determine electronic state:  an orbital has unidentified symmetry.
 Alpha  occ. eigenvalues --   -3.05237  -1.96187  -1.96187  -1.92134  -1.13168
 Alpha  occ. eigenvalues --   -0.50398  -0.43369  -0.39622  -0.39622  -0.28677
 Alpha virt. eigenvalues --   -0.00476  -0.00476   0.00745   0.02237   0.03577
 Alpha virt. eigenvalues --    0.03577   0.04101   0.04673   0.05079   0.05921
 Alpha virt. eigenvalues --    0.05921   0.06157   0.08419   0.10832   0.11760

 Mulliken charges and spin densities:
               1          2
     1  Ti   0.940160   1.986937
     2  O   -0.940160   0.013063
 Sum of Mulliken charges =  -0.00000   2.00000

 Dipole moment (field-independent basis, Debye):
    X=              0.0000    Y=              0.0000    Z=              6.0780  Tot=              6.0780
 Quadrupole moment (field-independent basis, Debye-Ang):
   XX=            -21.6715   YY=            -21.6715   ZZ=            -30.3253
   XY=              0.0000   XZ=              0.0000   YZ=              0.0000

 \\#P ROCCSD(T)=(maxcyc=150, Full, SaveAmplitudes, ReadAmplitudes)/Gen
 .9764818\CCSD(T)=-74.0286959\RMSD=7.494e-09\PG=C*V [C*(O1Ti1)]\\@
 Normal termination of Gaussian 16 at Fri Mar  9 15:23:43 2018.
