 Gaussian 16, Revision A.03,
 Gaussian 16:  ES64L-G16RevA.03 25-Dec-2016

 ----------------------------------------------------------------------
 #P ROCCSD(T)=(maxcyc=150, Full, SaveAmplitudes, ReadAmplitudes)/Gen 5d
  7f SCF=(maxcycles=300) Integral(NoXCTest) MaxDisk=500GB Pop=Regular P
 seudo=Read Guess=Read IOp(5/15=2)
 ----------------------------------------------------------------------

 ---
 MnH
 ---
 Symbolic Z-matrix:
 Charge =  0 Multiplicity = 7

                         Standard orientation:
 ---------------------------------------------------------------------
 Center     Atomic      Atomic             Coordinates (Angstroms)
 Number     Number       Type             X           Y           Z
 ---------------------------------------------------------------------
      1         25           0        0.000000    0.000000    0.076923
      2          1           0        0.000000    0.000000   -1.923077
 ---------------------------------------------------------------------

 SCF Done:  E(ROHF) =  -104.246483013     A.U. after   26 cycles
 E2 =    -0.5801324813D+00 EUMP2 =    -0.10482661549433D+03
 CCSD(T)
 CCSD(T)= -0.10485198261D+03

 The electronic state is 7-SG.
 Alpha  occ. eigenvalues --   -4.11325  -2.77536  -2.77536  -2.77351  -0.65455
 Alpha  occ. eigenvalues --   -0.65455  -0.64767  -0.64767  -0.64716  -0.38679
 Alpha  occ. eigenvalues --   -0.27154
 Alpha virt. eigenvalues --    0.00963   0.00963   0.02301   0.03137   0.05440
 Alpha virt. eigenvalues --    0.05440   0.07964   0.08381   0.08381   0.08875
 Alpha virt. eigenvalues --    0.08875   0.10336   0.13344   0.18145   0.22160

 Mulliken charges and spin densities:
               1          2
     1  Mn   0.429457   5.957801
     2  H   -0.429457   0.042199
 Sum of Mulliken charges =  -0.00000   6.00000

 Dipole moment (field-independent basis, Debye):
    X=              0.0000    Y=              0.0000    Z=              2.3793  Tot=              2.3793
 Quadrupole moment (field-independent basis, Debye-Ang):
   XX=            -16.3534   YY=            -16.3534   ZZ=            -27.8716
   XY=              0.0000   XZ=              0.0000   YZ=              0.0000

 \\#P ROCCSD(T)=(maxcyc=150, Full, SaveAmplitudes, ReadAmplitudes)/Gen
 47296\CCSD=-104.8359957\CCSD(T)=-104.8519826\RMSD=8.994e-09\PG=C*V [C*
 Normal termination of Gaussian 16 at Mon Feb 26 17:27:08 2018.
