 Gaussian 16, Revision A.03,
 Gaussian 16:  ES64L-G16RevA.03 25-Dec-2016

 ----------------------------------------------------------------------
 #P ROCCSD(T)=(maxcyc=150, Full)/Gen 5d 7f SCF=(maxcycles=300, NoVarAcc
 , VShift=200) MaxDisk=100GB Pop=Regular Pseudo=Read Guess=Read IOp(5/1
 5=2)
 ----------------------------------------------------------------------

 --
 Mn
 --
 Symbolic Z-matrix:
 Charge =  0 Multiplicity = 6

                         Standard orientation:
 ---------------------------------------------------------------------
 Center     Atomic      Atomic             Coordinates (Angstroms)
 Number     Number       Type             X           Y           Z
 ---------------------------------------------------------------------
      1         25           0        0.000000    0.000000    0.000000
 ---------------------------------------------------------------------

 SCF Done:  E(ROHF) =  -103.689910985     A.U. after   22 cycles
 E2 =    -0.5733694344D+00 EUMP2 =    -0.10426328041963D+03
 CCSD(T)
 CCSD(T)= -0.10428398548D+03

 The electronic state is 6-A1G.
 Alpha  occ. eigenvalues --   -4.14223  -2.74562  -2.74562  -2.74562  -0.64069
 Alpha  occ. eigenvalues --   -0.64069  -0.64069  -0.64069  -0.64069  -0.26750
 Alpha virt. eigenvalues --    0.01864   0.01864   0.01864   0.02665   0.06636
 Alpha virt. eigenvalues --    0.06636   0.06636   0.08962   0.08962   0.08962
 Alpha virt. eigenvalues --    0.08962   0.08962   0.13917   0.24339   0.24339

 Mulliken charges and spin densities:
               1          2
     1  Mn  -0.000000   5.000000
 Sum of Mulliken charges =  -0.00000   5.00000

 Dipole moment (field-independent basis, Debye):
    X=              0.0000    Y=              0.0000    Z=              0.0000  Tot=              0.0000
 Quadrupole moment (field-independent basis, Debye-Ang):
   XX=            -18.7408   YY=            -18.7408   ZZ=            -18.7408
   XY=              0.0000   XZ=              0.0000   YZ=             -0.0000

 1\1\GINC-C506-094\SP\ROCCSD(T)-Full\Gen\Mn1(6)\AANNABE\01-Apr-2018\0\\
 #P ROCCSD(T)=(maxcyc=150, Full)/Gen 5d 7f SCF=(maxcycles=300, NoVarAcc
 , VShift=200) MaxDisk=100GB Pop=Regular Pseudo=Read Guess=Read IOp(5/1
 5=2)\\Mn\\0,6\Mn,0,0.,0.,0.\\Version=ES64L-G16RevA.03\State=6-A1G\HF=-
 103.689911\MP2=-104.2632804\MP3=-104.2629809\PUHF=-103.689911\PMP2-0=-
 104.2632804\MP4SDQ=-104.2664869\CCSD=-104.266437\CCSD(T)=-104.2839855\
 RMSD=1.371e-09\PG=OH [O(Mn1)]\\@

 Normal termination of Gaussian 16 at Sun Apr  1 23:26:56 2018.
