 Gaussian 16, Revision A.03,
 Gaussian 16:  ES64L-G16RevA.03 25-Dec-2016

 ----------------------------------------------------------------------
 #P ROCCSD(T)=(maxcyc=100, Full)/Gen SCF=(maxcycle=400, symm) Pseudo=Re
 ad Integral(NoXCTest) Pop=Regular MaxDisk=500GB Guess=Permute IOp(5/15
 =2)
 ----------------------------------------------------------------------

 ---
 FeH
 ---
 Symbolic Z-matrix:
 Charge =  0 Multiplicity = 4

                         Standard orientation:
 ---------------------------------------------------------------------
 Center     Atomic      Atomic             Coordinates (Angstroms)
 Number     Number       Type             X           Y           Z
 ---------------------------------------------------------------------
      1         26           0        0.000000    0.000000    0.062963
      2          1           0        0.000000    0.000000   -1.637037
 ---------------------------------------------------------------------

 SCF Done:  E(ROHF) =  -123.586943784     A.U. after   28 cycles
 E2 =    -0.8094138834D+00 EUMP2 =    -0.12439635766789D+03
 CCSD(T)
 CCSD(T)= -0.12439631904D+03

 Unable to determine electronic state:  an orbital has unidentified symmetry.
 Alpha  occ. eigenvalues --   -4.28451  -2.76516  -2.76104  -2.76104  -0.49417
 Alpha  occ. eigenvalues --   -0.49417  -0.48952  -0.43977  -0.43611  -0.32003
 Alpha virt. eigenvalues --   -0.00652   0.02110   0.02110   0.02676   0.03254
 Alpha virt. eigenvalues --    0.05760   0.06180   0.06191   0.06358   0.06358
 Alpha virt. eigenvalues --    0.07417   0.07417   0.08749   0.12853   0.16269

 Mulliken charges and spin densities:
               1          2
     1  Fe   0.286719   2.996438
     2  H   -0.286719   0.003562
 Sum of Mulliken charges =  -0.00000   3.00000

 Dipole moment (field-independent basis, Debye):
    X=              0.0000    Y=              0.0000    Z=              4.6850  Tot=              4.6850
 Quadrupole moment (field-independent basis, Debye-Ang):
   XX=            -15.3537   YY=            -15.3537   ZZ=            -18.1522
   XY=              0.0000   XZ=              0.0000   YZ=              0.0000

 \\#P ROCCSD(T)=(maxcyc=100, Full)/Gen SCF=(maxcycle=400, symm) Pseudo=
 367235\CCSD(T)=-124.396319\RMSD=7.252e-09\PG=C*V [C*(H1Fe1)]\\@
 Normal termination of Gaussian 16 at Tue Feb 13 00:03:18 2018.
