 Gaussian 16, Revision A.03,
 Gaussian 16:  ES64L-G16RevA.03 25-Dec-2016

 ----------------------------------------------------------------------
 #P ROCCSD(T)=(maxcyc=100, Full)/Gen SCF=(maxcycle=400, symm) Pseudo=Re
 ad Integral(NoXCTest) Pop=Regular MaxDisk=500GB Guess=Permute IOp(5/15
 =2)
 ----------------------------------------------------------------------

 ---
 FeH
 ---
 Symbolic Z-matrix:
 Charge =  0 Multiplicity = 4

                         Standard orientation:
 ---------------------------------------------------------------------
 Center     Atomic      Atomic             Coordinates (Angstroms)
 Number     Number       Type             X           Y           Z
 ---------------------------------------------------------------------
      1         26           0        0.000000    0.000000    0.062963
      2          1           0        0.000000    0.000000   -1.637037
 ---------------------------------------------------------------------

 SCF Done:  E(ROHF) =  -123.585621386     A.U. after   35 cycles
 E2 =    -0.7595805667D+00 EUMP2 =    -0.12434520195253D+03
 CCSD(T)
 CCSD(T)= -0.12434929619D+03

 Unable to determine electronic state:  an orbital has unidentified symmetry.
 Alpha  occ. eigenvalues --   -4.28452  -2.76527  -2.76113  -2.76113  -0.49418
 Alpha  occ. eigenvalues --   -0.49418  -0.48952  -0.43971  -0.43601  -0.32000
 Alpha virt. eigenvalues --   -0.00615   0.02417   0.02417   0.03293   0.04039
 Alpha virt. eigenvalues --    0.08483   0.08483   0.09526   0.10165   0.10205
 Alpha virt. eigenvalues --    0.10406   0.10406   0.10889   0.17119   0.23251

 Mulliken charges and spin densities:
               1          2
     1  Fe   0.424238   2.998372
     2  H   -0.424238   0.001628
 Sum of Mulliken charges =  -0.00000   3.00000

 Dipole moment (field-independent basis, Debye):
    X=              0.0000    Y=              0.0000    Z=              4.6907  Tot=              4.6907
 Quadrupole moment (field-independent basis, Debye-Ang):
   XX=            -15.3684   YY=            -15.3684   ZZ=            -18.1389
   XY=              0.0000   XZ=              0.0000   YZ=              0.0000

 \\#P ROCCSD(T)=(maxcyc=100, Full)/Gen SCF=(maxcycle=400, symm) Pseudo=
 28546\CCSD(T)=-124.3492962\RMSD=8.223e-09\PG=C*V [C*(H1Fe1)]\\@
 Normal termination of Gaussian 16 at Mon Feb 12 21:40:04 2018.
