 Gaussian 16, Revision A.03,
 Gaussian 16:  ES64L-G16RevA.03 25-Dec-2016

 ----------------------------------------------------------------------
 #P ROCCSD(T)=(maxcyc=100, Full)/Gen SCF=(maxcycle=400, symm) Pseudo=Re
 ad Integral(NoXCTest) Pop=Regular MaxDisk=500GB Guess=Permute IOp(5/15
 =2)
 ----------------------------------------------------------------------

 ---
 FeH
 ---
 Symbolic Z-matrix:
 Charge =  0 Multiplicity = 4

                         Standard orientation:
 ---------------------------------------------------------------------
 Center     Atomic      Atomic             Coordinates (Angstroms)
 Number     Number       Type             X           Y           Z
 ---------------------------------------------------------------------
      1         26           0        0.000000    0.000000    0.062963
      2          1           0        0.000000    0.000000   -1.637037
 ---------------------------------------------------------------------

 SCF Done:  E(ROHF) =  -123.586761019     A.U. after   28 cycles
 E2 =    -0.7952017053D+00 EUMP2 =    -0.12438196272464D+03
 CCSD(T)
 CCSD(T)= -0.12438397206D+03

 Unable to determine electronic state:  partially filled degenerate orbitals.
 Alpha  occ. eigenvalues --   -4.28453  -2.76520  -2.76108  -2.76108  -0.49420
 Alpha  occ. eigenvalues --   -0.49420  -0.48955  -0.43975  -0.43608  -0.32002
 Alpha virt. eigenvalues --   -0.00629   0.02177   0.02177   0.03011   0.03763
 Alpha virt. eigenvalues --    0.06225   0.06747   0.06760   0.06873   0.06873
 Alpha virt. eigenvalues --    0.07776   0.07776   0.10018   0.16045   0.17842

 Mulliken charges and spin densities:
               1          2
     1  Fe   0.329169   2.997376
     2  H   -0.329169   0.002624
 Sum of Mulliken charges =  -0.00000   3.00000

 Dipole moment (field-independent basis, Debye):
    X=              0.0000    Y=              0.0000    Z=              4.6852  Tot=              4.6852
 Quadrupole moment (field-independent basis, Debye-Ang):
   XX=            -15.3560   YY=            -15.3560   ZZ=            -18.1491
   XY=              0.0000   XZ=              0.0000   YZ=              0.0000

 \\#P ROCCSD(T)=(maxcyc=100, Full)/Gen SCF=(maxcycle=400, symm) Pseudo=
 55794\CCSD(T)=-124.3839721\RMSD=3.901e-09\PG=C*V [C*(H1Fe1)]\\@
 Normal termination of Gaussian 16 at Mon Feb 12 22:19:17 2018.
