 Gaussian 16, Revision A.03,
 Gaussian 16:  ES64L-G16RevA.03 25-Dec-2016

 ----------------------------------------------------------------------
 #P ROCCSD(T)=(maxcyc=150, Full, SaveAmplitudes, ReadAmplitudes)/Gen 5d
  7f SCF=(maxcycles=300) Integral(NoXCTest) MaxDisk=500GB Pop=Regular P
 seudo=Read Guess=Read IOp(5/15=2)
 ----------------------------------------------------------------------

 ---
 CrH
 ---
 Symbolic Z-matrix:
 Charge =  0 Multiplicity = 6

                         Standard orientation:
 ---------------------------------------------------------------------
 Center     Atomic      Atomic             Coordinates (Angstroms)
 Number     Number       Type             X           Y           Z
 ---------------------------------------------------------------------
      1         24           0        0.000000    0.000000    0.076000
      2          1           0        0.000000    0.000000   -1.824000
 ---------------------------------------------------------------------

 SCF Done:  E(ROHF) =  -86.8733855045     A.U. after   24 cycles
 E2 =    -0.5391767586D+00 EUMP2 =    -0.87412562263133D+02
 CCSD(T)
 CCSD(T)= -0.87463342723D+02

 The electronic state is 6-SG.
 Alpha  occ. eigenvalues --   -3.69646  -2.46081  -2.46081  -2.41057  -0.56862
 Alpha  occ. eigenvalues --   -0.56862  -0.53359  -0.53359  -0.38859  -0.26613
 Alpha virt. eigenvalues --    0.01078   0.01078   0.02292   0.02624   0.05274
 Alpha virt. eigenvalues --    0.05274   0.05571   0.07524   0.07524   0.07996
 Alpha virt. eigenvalues --    0.07996   0.09085   0.10465   0.17043   0.20463

 Mulliken charges and spin densities:
               1          2
     1  Cr   0.380257   4.979506
     2  H   -0.380257   0.020494
 Sum of Mulliken charges =  -0.00000   5.00000

 Dipole moment (field-independent basis, Debye):
    X=              0.0000    Y=              0.0000    Z=              2.5610  Tot=              2.5610
 Quadrupole moment (field-independent basis, Debye-Ang):
   XX=            -17.0423   YY=            -17.0423   ZZ=            -26.1164
   XY=              0.0000   XZ=              0.0000   YZ=              0.0000

 \\#P ROCCSD(T)=(maxcyc=150, Full, SaveAmplitudes, ReadAmplitudes)/Gen
 69\CCSD=-87.4471366\CCSD(T)=-87.4633427\RMSD=4.504e-09\PG=C*V [C*(H1Cr
 Normal termination of Gaussian 16 at Mon Feb 26 13:11:08 2018.
