 Gaussian 16, Revision A.03,
 Gaussian 16:  ES64L-G16RevA.03 25-Dec-2016

 ----------------------------------------------------------------------
 #P ROCCSD(T)=(maxcyc=150, Full, SaveAmplitudes, ReadAmplitudes)/Gen 5d
  7f SCF=(maxcycles=300, VShift=400) Integral(NoXCTest) MaxDisk=500GB P
 op=Full Pseudo=Read Guess=Read IOp(5/15=2)
 ----------------------------------------------------------------------

 ---
 CrO
 ---
 Symbolic Z-matrix:
 Charge =  0 Multiplicity = 5

                         Standard orientation:
 ---------------------------------------------------------------------
 Center     Atomic      Atomic             Coordinates (Angstroms)
 Number     Number       Type             X           Y           Z
 ---------------------------------------------------------------------
      1         24           0        0.000000    0.000000    0.375000
      2          8           0        0.000000    0.000000   -1.125000
 ---------------------------------------------------------------------

 SCF Done:  E(ROHF) =  -102.121084414     A.U. after   41 cycles
 E2 =    -0.8837565064D+00 EUMP2 =    -0.10300484092015D+03
 CCSD(T)
 CCSD(T)= -0.10302706726D+03

 Unable to determine electronic state:  an orbital has unidentified symmetry.
 Alpha  occ. eigenvalues --   -3.78461  -2.48782  -2.44629  -2.42079  -1.20964
 Alpha  occ. eigenvalues --   -0.63967  -0.58214  -0.56821  -0.50524  -0.47803
 Alpha  occ. eigenvalues --   -0.39914  -0.30091
 Alpha virt. eigenvalues --    0.00857   0.01095   0.01917   0.03225   0.04726
 Alpha virt. eigenvalues --    0.04910   0.06367   0.07618   0.07627   0.08028
 Alpha virt. eigenvalues --    0.08460   0.08510   0.12840   0.14506   0.16825

 Mulliken charges and spin densities:
               1          2
     1  Cr   1.021587   3.830857
     2  O   -1.021587   0.169143
 Sum of Mulliken charges =  -0.00000   4.00000

 Dipole moment (field-independent basis, Debye):
    X=              0.0000    Y=              0.0000    Z=              4.5875  Tot=              4.5875
 Quadrupole moment (field-independent basis, Debye-Ang):
   XX=            -20.6284   YY=            -19.5615   ZZ=            -24.0948
   XY=              0.0000   XZ=              0.0000   YZ=              0.0000

 \\#P ROCCSD(T)=(maxcyc=150, Full, SaveAmplitudes, ReadAmplitudes)/Gen
 091596\CCSD=-102.9787846\CCSD(T)=-103.0270673\RMSD=9.709e-09\PG=C*V [C
 Normal termination of Gaussian 16 at Wed Apr  4 07:54:23 2018.
