 Gaussian 16, Revision A.03,
 Gaussian 16:  ES64L-G16RevA.03 25-Dec-2016

 ----------------------------------------------------------------------
 #P ROCCSD(T)=(maxcyc=150, Full, SaveAmplitudes, ReadAmplitudes)/Gen 5d
  7f SCF=(maxcycles=300) Integral(NoXCTest) MaxDisk=500GB Pop=Regular P
 seudo=Read Guess=Read IOp(5/15=2)
 ----------------------------------------------------------------------

 ---
 MnO
 ---
 Symbolic Z-matrix:
 Charge =  0 Multiplicity = 6

                         Standard orientation:
 ---------------------------------------------------------------------
 Center     Atomic      Atomic             Coordinates (Angstroms)
 Number     Number       Type             X           Y           Z
 ---------------------------------------------------------------------
      1         25           0        0.000000    0.000000    0.315152
      2          8           0        0.000000    0.000000   -0.984848
 ---------------------------------------------------------------------

 SCF Done:  E(ROHF) =  -118.981881110     A.U. after   31 cycles
 E2 =    -0.9300653878D+00 EUMP2 =    -0.11991194649795D+03
 CCSD(T)
 CCSD(T)= -0.11991860544D+03

 The electronic state is 6-SG.
 Alpha  occ. eigenvalues --   -4.21678  -2.76740  -2.76641  -2.76641  -1.26749
 Alpha  occ. eigenvalues --   -0.73460  -0.73460  -0.61412  -0.61412  -0.60156
 Alpha  occ. eigenvalues --   -0.40708  -0.40708  -0.30077
 Alpha virt. eigenvalues --    0.01917   0.02419   0.02419   0.03167   0.06399
 Alpha virt. eigenvalues --    0.07587   0.07587   0.08762   0.08762   0.09360
 Alpha virt. eigenvalues --    0.09360   0.10269   0.12086   0.16420   0.24560

 Mulliken charges and spin densities:
               1          2
     1  Mn   0.842333   4.760410
     2  O   -0.842333   0.239590
 Sum of Mulliken charges =  -0.00000   5.00000

 Dipole moment (field-independent basis, Debye):
    X=              0.0000    Y=              0.0000    Z=              2.7182  Tot=              2.7182
 Quadrupole moment (field-independent basis, Debye-Ang):
   XX=            -19.8826   YY=            -19.8826   ZZ=            -22.9656
   XY=              0.0000   XZ=              0.0000   YZ=              0.0000

 \\#P ROCCSD(T)=(maxcyc=150, Full, SaveAmplitudes, ReadAmplitudes)/Gen
 .893348\CCSD=-119.8791683\CCSD(T)=-119.9186054\RMSD=3.147e-09\PG=C*V [
 Normal termination of Gaussian 16 at Wed Mar 14 03:03:49 2018.
