 Gaussian 16, Revision A.03,
 Gaussian 16:  ES64L-G16RevA.03 25-Dec-2016

 ----------------------------------------------------------------------
 #P ROCCSD(T)=(maxcyc=150, Full, SaveAmplitudes, ReadAmplitudes)/Gen 5d
  7f SCF=(maxcycles=300) Integral(NoXCTest) MaxDisk=500GB Pop=Regular P
 seudo=Read Guess=Read IOp(5/15=2)
 ----------------------------------------------------------------------

 ---
 ScO
 ---
 Symbolic Z-matrix:
 Charge =  0 Multiplicity = 2

                         Standard orientation:
 ---------------------------------------------------------------------
 Center     Atomic      Atomic             Coordinates (Angstroms)
 Number     Number       Type             X           Y           Z
 ---------------------------------------------------------------------
      1         21           0        0.000000    0.000000    0.551724
      2          8           0        0.000000    0.000000   -1.448276
 ---------------------------------------------------------------------

 SCF Done:  E(ROHF) =  -61.8956690930     A.U. after   17 cycles
 E2 =    -0.6976954830D+00 EUMP2 =    -0.62593364575959D+02
 CCSD(T)
 CCSD(T)= -0.62627197448D+02

 The electronic state is 2-SG.
 Alpha  occ. eigenvalues --   -2.73928  -1.70826  -1.70826  -1.70306  -1.09840
 Alpha  occ. eigenvalues --   -0.38960  -0.34744  -0.34744  -0.28358
 Alpha virt. eigenvalues --   -0.01340  -0.01340   0.00548   0.01736   0.02816
 Alpha virt. eigenvalues --    0.02816   0.03109   0.03109   0.03697   0.04380
 Alpha virt. eigenvalues --    0.04380   0.04989   0.05110   0.05110   0.09674

 Mulliken charges and spin densities:
               1          2
     1  Sc   1.185974   0.977749
     2  O   -1.185974   0.022251
 Sum of Mulliken charges =  -0.00000   1.00000

 Dipole moment (field-independent basis, Debye):
    X=              0.0000    Y=              0.0000    Z=              7.4535  Tot=              7.4535
 Quadrupole moment (field-independent basis, Debye-Ang):
   XX=            -22.0905   YY=            -22.0905   ZZ=            -34.8813
   XY=              0.0000   XZ=              0.0000   YZ=              0.0000

 \\#P ROCCSD(T)=(maxcyc=150, Full, SaveAmplitudes, ReadAmplitudes)/Gen
 4\CCSD=-62.5754987\CCSD(T)=-62.6271974\RMSD=7.494e-09\PG=C*V [C*(O1Sc1
 Normal termination of Gaussian 16 at Mon Mar  5 18:26:43 2018.
