 Gaussian 16, Revision A.03,
 Gaussian 16:  ES64L-G16RevA.03 25-Dec-2016

 ----------------------------------------------------------------------
 #P ROCCSD(T)=(maxcyc=150, Full, SaveAmplitudes, ReadAmplitudes)/Gen 5d
  7f SCF=(maxcycles=300) Integral(NoXCTest) MaxDisk=500GB Pop=Regular P
 seudo=Read Guess=Read IOp(5/15=2)
 ----------------------------------------------------------------------

 ---
 ScO
 ---
 Symbolic Z-matrix:
 Charge =  0 Multiplicity = 2

                         Standard orientation:
 ---------------------------------------------------------------------
 Center     Atomic      Atomic             Coordinates (Angstroms)
 Number     Number       Type             X           Y           Z
 ---------------------------------------------------------------------
      1         21           0        0.000000    0.000000    0.386207
      2          8           0        0.000000    0.000000   -1.013793
 ---------------------------------------------------------------------

 SCF Done:  E(ROHF) =  -61.8925664524     A.U. after   16 cycles
 E2 =    -0.6721815949D+00 EUMP2 =    -0.62564748047217D+02
 CCSD(T)
 CCSD(T)= -0.62592160246D+02

 The electronic state is 2-SG.
 Alpha  occ. eigenvalues --   -2.59076  -1.71819  -1.55202  -1.55202  -1.09470
 Alpha  occ. eigenvalues --   -0.52518  -0.52518  -0.46171  -0.21023
 Alpha virt. eigenvalues --    0.00843   0.00843   0.02201   0.02228   0.03749
 Alpha virt. eigenvalues --    0.03749   0.03837   0.03837   0.03992   0.04559
 Alpha virt. eigenvalues --    0.04559   0.07108   0.10405   0.10405   0.10957

 Mulliken charges and spin densities:
               1          2
     1  Sc   1.254087   0.988557
     2  O   -1.254087   0.011443
 Sum of Mulliken charges =  -0.00000   1.00000

 Dipole moment (field-independent basis, Debye):
    X=              0.0000    Y=              0.0000    Z=              1.5182  Tot=              1.5182
 Quadrupole moment (field-independent basis, Debye-Ang):
   XX=            -22.2894   YY=            -22.2894   ZZ=            -30.2690
   XY=              0.0000   XZ=              0.0000   YZ=              0.0000

 \\#P ROCCSD(T)=(maxcyc=150, Full, SaveAmplitudes, ReadAmplitudes)/Gen
 \CCSD=-62.5595849\CCSD(T)=-62.5921602\RMSD=4.406e-09\PG=C*V [C*(O1Sc1)
 Normal termination of Gaussian 16 at Mon Mar  5 18:22:27 2018.
