 Gaussian 16, Revision A.03,
 Gaussian 16:  ES64L-G16RevA.03 25-Dec-2016

 ----------------------------------------------------------------------
 #P ROCCSD(T)=(maxcyc=150, FrzINGC)/Gen 5d 7f SCF=(maxcycles=300) Integ
 ral(NoXCTest, DKHSO) MaxDisk=500GB Pop=Regular IOp(5/15=2) Guess=Read
 ----------------------------------------------------------------------

 ---
 ScH
 ---
 Symbolic Z-matrix:
 Charge =  0 Multiplicity = 1

                         Standard orientation:
 ---------------------------------------------------------------------
 Center     Atomic      Atomic             Coordinates (Angstroms)
 Number     Number       Type             X           Y           Z
 ---------------------------------------------------------------------
      1         21           0        0.000000    0.000000    0.072727
      2          1           0        0.000000    0.000000   -1.527273
 ---------------------------------------------------------------------

 SCF Done:  E(ROHF) =  -763.825816041     A.U. after   11 cycles
 E2 =    -0.3967024787D+00 EUMP2 =    -0.76422251851981D+03
 CCSD(T)
 CCSD(T)= -0.76426320441D+03

 The electronic state is 1-SG.
 Alpha  occ. eigenvalues -- -166.89681 -19.35042 -15.77380 -15.77380 -15.76654
 Alpha  occ. eigenvalues --   -2.66541  -1.64627  -1.64165  -1.64165  -0.43064
 Alpha  occ. eigenvalues --   -0.22600
 Alpha virt. eigenvalues --    0.01189   0.01189   0.01596   0.01896   0.02868
 Alpha virt. eigenvalues --    0.02868   0.02909   0.02909   0.02924   0.04206
 Alpha virt. eigenvalues --    0.04206   0.04466   0.07695   0.07695   0.07895

 Mulliken charges and spin densities:
               1          2
     1  Sc   0.274208   0.000000
     2  H   -0.274208   0.000000
 Sum of Mulliken charges =  -0.00000   0.00000

 Dipole moment (field-independent basis, Debye):
    X=              0.0000    Y=              0.0000    Z=              0.8933  Tot=              0.8933
 Quadrupole moment (field-independent basis, Debye-Ang):
   XX=            -23.6512   YY=            -23.6512   ZZ=            -25.8893
   XY=              0.0000   XZ=              0.0000   YZ=              0.0000

  ROCCSD(T)=(maxcyc=150, FrzINGC)/Gen 5d 7f SCF=(maxcycles=300) Integra
 MP2-0=-764.2225185\MP4SDQ=-764.2458637\CCSD=-764.24612\CCSD(T)=-764.26
 Normal termination of Gaussian 16 at Tue Feb 13 17:00:55 2018.
