 Gaussian 16, Revision A.03,
 Gaussian 16:  ES64L-G16RevA.03 25-Dec-2016

 ----------------------------------------------------------------------
 #P ROCCSD(T)=(MaxCyc=150, Full)/Gen SCF=(maxcycle=400) Pseudo=Read Int
 egral(NoXCTest) Pop=Regular MaxDisk=500GB Guess=Read IOp(5/15=2)
 ----------------------------------------------------------------------

 ---
 CuH
 ---
 Symbolic Z-matrix:
 Charge =  0 Multiplicity = 1

                         Standard orientation:
 ---------------------------------------------------------------------
 Center     Atomic      Atomic             Coordinates (Angstroms)
 Number     Number       Type             X           Y           Z
 ---------------------------------------------------------------------
      1         29           0        0.000000    0.000000    0.043333
      2          1           0        0.000000    0.000000   -1.256667
 ---------------------------------------------------------------------

 SCF Done:  E(ROHF) =  -196.515347794     A.U. after   13 cycles
 E2 =    -0.1114176883D+01 EUMP2 =    -0.19762952467675D+03
 CCSD(T)
 CCSD(T)= -0.19754350010D+03

 The electronic state is 1-SG.
 Alpha  occ. eigenvalues --   -5.25947  -3.38178  -3.37232  -3.37232  -0.53488
 Alpha  occ. eigenvalues --   -0.51306  -0.51306  -0.50522  -0.50522  -0.33875
 Alpha virt. eigenvalues --    0.00483   0.02963   0.02963   0.03420   0.05800
 Alpha virt. eigenvalues --    0.10063   0.10341   0.10341   0.17253   0.19419
 Alpha virt. eigenvalues --    0.19419   0.20525   0.20525   0.21973   0.25951

 Mulliken charges and spin densities:
               1          2
     1  Cu   0.340621   0.000000
     2  H   -0.340621   0.000000
 Sum of Mulliken charges =  -0.00000   0.00000

 Dipole moment (field-independent basis, Debye):
    X=              0.0000    Y=              0.0000    Z=              3.5891  Tot=              3.5891
 Quadrupole moment (field-independent basis, Debye-Ang):
   XX=            -13.8018   YY=            -13.8018   ZZ=            -15.0019
   XY=              0.0000   XZ=              0.0000   YZ=              0.0000

 P ROCCSD(T)=(MaxCyc=150, Full)/Gen SCF=(maxcycle=400) Pseudo=Read Inte
 2-0=-197.6295247\MP4SDQ=-197.5858777\CCSD=-197.5051258\CCSD(T)=-197.54
 Normal termination of Gaussian 16 at Wed Apr  4 23:00:39 2018.
