 Gaussian 16, Revision A.03,
 Gaussian 16:  ES64L-G16RevA.03 25-Dec-2016

 ----------------------------------------------------------------------
 #P ROCCSD(T)=(MaxCyc=150, Full)/Gen SCF=(maxcycle=400) Pseudo=Read Int
 egral(NoXCTest) Pop=Regular MaxDisk=500GB Guess=Read IOp(5/15=2)
 ----------------------------------------------------------------------

 ---
 CuH
 ---
 Symbolic Z-matrix:
 Charge =  0 Multiplicity = 1

                         Standard orientation:
 ---------------------------------------------------------------------
 Center     Atomic      Atomic             Coordinates (Angstroms)
 Number     Number       Type             X           Y           Z
 ---------------------------------------------------------------------
      1         29           0        0.000000    0.000000    0.043333
      2          1           0        0.000000    0.000000   -1.256667
 ---------------------------------------------------------------------

 SCF Done:  E(ROHF) =  -196.518145643     A.U. after    8 cycles
 E2 =    -0.1166150046D+01 EUMP2 =    -0.19768429568945D+03
 CCSD(T)
 CCSD(T)= -0.19759671701D+03

 The electronic state is 1-SG.
 Alpha  occ. eigenvalues --   -5.25932  -3.38153  -3.37212  -3.37212  -0.53487
 Alpha  occ. eigenvalues --   -0.51310  -0.51310  -0.50530  -0.50530  -0.33879
 Alpha virt. eigenvalues --    0.00456   0.02674   0.02674   0.03097   0.05398
 Alpha virt. eigenvalues --    0.08994   0.08994   0.09075   0.13441   0.13441
 Alpha virt. eigenvalues --    0.13458   0.13999   0.13999   0.20290   0.22571

 Mulliken charges and spin densities:
               1          2
     1  Cu   0.323637   0.000000
     2  H   -0.323637   0.000000
 Sum of Mulliken charges =  -0.00000   0.00000

 Dipole moment (field-independent basis, Debye):
    X=              0.0000    Y=              0.0000    Z=              3.5795  Tot=              3.5795
 Quadrupole moment (field-independent basis, Debye-Ang):
   XX=            -13.7911   YY=            -13.7911   ZZ=            -15.0168
   XY=              0.0000   XZ=              0.0000   YZ=              0.0000

 P ROCCSD(T)=(MaxCyc=150, Full)/Gen SCF=(maxcycle=400) Pseudo=Read Inte
 2-0=-197.6842957\MP4SDQ=-197.6361478\CCSD=-197.5562832\CCSD(T)=-197.59
 Normal termination of Gaussian 16 at Wed Apr  4 23:53:37 2018.
