 Gaussian 16, Revision A.03,
 Gaussian 16:  ES64L-G16RevA.03 25-Dec-2016

 ----------------------------------------------------------------------
 #P ROCCSD(T)=(MaxCyc=150, Full)/Gen SCF=(maxcycle=400) Pseudo=Read Int
 egral(NoXCTest) Pop=Regular MaxDisk=500GB Guess=Read IOp(5/15=2)
 ----------------------------------------------------------------------

 ---
 CuH
 ---
 Symbolic Z-matrix:
 Charge =  0 Multiplicity = 1

                         Standard orientation:
 ---------------------------------------------------------------------
 Center     Atomic      Atomic             Coordinates (Angstroms)
 Number     Number       Type             X           Y           Z
 ---------------------------------------------------------------------
      1         29           0        0.000000    0.000000    0.043333
      2          1           0        0.000000    0.000000   -1.256667
 ---------------------------------------------------------------------

 SCF Done:  E(ROHF) =  -196.517992035     A.U. after    7 cycles
 E2 =    -0.1191105131D+01 EUMP2 =    -0.19770909716548D+03
 CCSD(T)
 CCSD(T)= -0.19761925019D+03

 The electronic state is 1-SG.
 Alpha  occ. eigenvalues --   -5.25937  -3.38157  -3.37217  -3.37217  -0.53487
 Alpha  occ. eigenvalues --   -0.51312  -0.51312  -0.50531  -0.50531  -0.33880
 Alpha virt. eigenvalues --    0.00364   0.02587   0.02587   0.02826   0.04579
 Alpha virt. eigenvalues --    0.07829   0.08628   0.08628   0.12013   0.12013
 Alpha virt. eigenvalues --    0.12048   0.12570   0.12570   0.15272   0.18714

 Mulliken charges and spin densities:
               1          2
     1  Cu   0.302507   0.000000
     2  H   -0.302507   0.000000
 Sum of Mulliken charges =   0.00000   0.00000

 Dipole moment (field-independent basis, Debye):
    X=              0.0000    Y=              0.0000    Z=              3.5779  Tot=              3.5779
 Quadrupole moment (field-independent basis, Debye-Ang):
   XX=            -13.7898   YY=            -13.7898   ZZ=            -15.0188
   XY=              0.0000   XZ=              0.0000   YZ=              0.0000

 P ROCCSD(T)=(MaxCyc=150, Full)/Gen SCF=(maxcycle=400) Pseudo=Read Inte
 0=-197.7090972\MP4SDQ=-197.6573772\CCSD=-197.578054\CCSD(T)=-197.61925
 Normal termination of Gaussian 16 at Thu Apr  5 02:36:45 2018.
