 Gaussian 16, Revision A.03,
 Gaussian 16:  ES64L-G16RevA.03 25-Dec-2016

 ----------------------------------------------------------------------
 #P ROCCSD(T)=(maxcyc=150, Full, SaveAmplitudes, ReadAmplitudes)/Gen 5d
  7f SCF=(maxcycles=300) Integral(NoXCTest) MaxDisk=500GB Pop=Regular P
 seudo=Read Guess=Read
 ----------------------------------------------------------------------

 ---
 TiO
 ---
 Symbolic Z-matrix:
 Charge =  0 Multiplicity = 3

                         Standard orientation:
 ---------------------------------------------------------------------
 Center     Atomic      Atomic             Coordinates (Angstroms)
 Number     Number       Type             X           Y           Z
 ---------------------------------------------------------------------
      1         22           0        0.000000    0.000000    0.426667
      2          8           0        0.000000    0.000000   -1.173333
 ---------------------------------------------------------------------

 SCF Done:  E(ROHF) =  -73.4061792285     A.U. after   19 cycles
 E2 =    -0.7750384202D+00 EUMP2 =    -0.74181217648635D+02
 CCSD(T)
 CCSD(T)= -0.74208423006D+02

 Unable to determine electronic state:  an orbital has unidentified symmetry.
 Alpha  occ. eigenvalues --   -3.01953  -1.90728  -1.90728  -1.89685  -1.16573
 Alpha  occ. eigenvalues --   -0.46769  -0.45495  -0.45185  -0.45185  -0.26261
 Alpha virt. eigenvalues --    0.00362   0.00362   0.01455   0.02345   0.03659
 Alpha virt. eigenvalues --    0.03659   0.03698   0.03770   0.04171   0.04171
 Alpha virt. eigenvalues --    0.04196   0.05310   0.09109   0.10353   0.11574

 Mulliken charges and spin densities:
               1          2
     1  Ti   1.019614   1.969765
     2  O   -1.019614   0.030235
 Sum of Mulliken charges =  -0.00000   2.00000

 Dipole moment (field-independent basis, Debye):
    X=              0.0000    Y=              0.0000    Z=              4.1475  Tot=              4.1475
 Quadrupole moment (field-independent basis, Debye-Ang):
   XX=            -21.4879   YY=            -21.4879   ZZ=            -29.0752
   XY=              0.0000   XZ=              0.0000   YZ=              0.0000

 \\#P ROCCSD(T)=(maxcyc=150, Full, SaveAmplitudes, ReadAmplitudes)/Gen
 -0=-74.1812176\CCSD=-74.1622861\CCSD(T)=-74.208423\RMSD=1.961e-09\PG=C
 Normal termination of Gaussian 16 at Sat Mar 10 19:38:23 2018.
