 Gaussian 16, Revision A.03,
 Gaussian 16:  ES64L-G16RevA.03 25-Dec-2016

 ----------------------------------------------------------------------
 #P ROCCSD(T)=(maxcyc=150, Full)/Gen 5d 7f SCF=(maxcycles=300) Integral
 (NoXCTest) MaxDisk=500GB Pop=Regular Pseudo=Read Guess=Read
 ----------------------------------------------------------------------

 ---
 ScH
 ---
 Symbolic Z-matrix:
 Charge =  0 Multiplicity = 1

                         Standard orientation:
 ---------------------------------------------------------------------
 Center     Atomic      Atomic             Coordinates (Angstroms)
 Number     Number       Type             X           Y           Z
 ---------------------------------------------------------------------
      1         21           0        0.000000    0.000000    0.050000
      2          1           0        0.000000    0.000000   -1.050000
 ---------------------------------------------------------------------

 SCF Done:  E(ROHF) =  -46.4800512984     A.U. after    9 cycles
 E2 =    -0.4426807236D+00 EUMP2 =    -0.46922732022017D+02
 CCSD(T)
 CCSD(T)= -0.46957826772D+02

 The electronic state is 1-SG.
 Alpha  occ. eigenvalues --   -2.60483  -1.64602  -1.57607  -1.57607  -0.47440
 Alpha  occ. eigenvalues --   -0.21310
 Alpha virt. eigenvalues --    0.01262   0.01325   0.01325   0.01678   0.02605
 Alpha virt. eigenvalues --    0.02605   0.02621   0.02644   0.02644   0.04009
 Alpha virt. eigenvalues --    0.04424   0.04424   0.07056   0.07421   0.07421

 Mulliken charges and spin densities:
               1          2
     1  Sc   0.224610   0.000000
     2  H   -0.224610   0.000000
 Sum of Mulliken charges =   0.00000   0.00000

 Dipole moment (field-independent basis, Debye):
    X=              0.0000    Y=              0.0000    Z=              0.9949  Tot=              0.9949
 Quadrupole moment (field-independent basis, Debye-Ang):
   XX=            -23.6545   YY=            -23.6545   ZZ=            -22.1720
   XY=              0.0000   XZ=              0.0000   YZ=              0.0000

 P ROCCSD(T)=(maxcyc=150, Full)/Gen 5d 7f SCF=(maxcycles=300) Integral(
 2732\MP4SDQ=-46.9394586\CCSD=-46.939157\CCSD(T)=-46.9578268\RMSD=4.422
 Normal termination of Gaussian 16 at Mon Feb 12 18:15:30 2018.
