 Gaussian 16, Revision A.03,
 Gaussian 16:  ES64L-G16RevA.03 25-Dec-2016

 ----------------------------------------------------------------------
 #P ROCCSD(T)=(maxcyc=150, Full, SaveAmplitudes, ReadAmplitudes)/Gen 5d
  7f SCF=(maxcycles=300) Integral(NoXCTest) MaxDisk=500GB Pop=Regular P
 seudo=Read Guess=Read
 ----------------------------------------------------------------------

 ---
 CrH
 ---
 Symbolic Z-matrix:
 Charge =  0 Multiplicity = 6

                         Standard orientation:
 ---------------------------------------------------------------------
 Center     Atomic      Atomic             Coordinates (Angstroms)
 Number     Number       Type             X           Y           Z
 ---------------------------------------------------------------------
      1         24           0        0.000000    0.000000    0.064000
      2          1           0        0.000000    0.000000   -1.536000
 ---------------------------------------------------------------------

 SCF Done:  E(ROHF) =  -86.8789650678     A.U. after   23 cycles
 E2 =    -0.5682580794D+00 EUMP2 =    -0.87447223147259D+02
 CCSD(T)
 CCSD(T)= -0.87490970815D+02

 The electronic state is 6-SG.
 Alpha  occ. eigenvalues --   -3.73391  -2.43311  -2.43311  -2.38931  -0.53500
 Alpha  occ. eigenvalues --   -0.53500  -0.50342  -0.50342  -0.41715  -0.25845
 Alpha virt. eigenvalues --    0.01356   0.01356   0.01983   0.02330   0.04635
 Alpha virt. eigenvalues --    0.05151   0.05151   0.05367   0.05367   0.05673
 Alpha virt. eigenvalues --    0.05673   0.06745   0.09543   0.12559   0.16807

 Mulliken charges and spin densities:
               1          2
     1  Cr   0.330861   4.980603
     2  H   -0.330861   0.019397
 Sum of Mulliken charges =  -0.00000   5.00000

 Dipole moment (field-independent basis, Debye):
    X=              0.0000    Y=              0.0000    Z=              2.0295  Tot=              2.0295
 Quadrupole moment (field-independent basis, Debye-Ang):
   XX=            -16.8644   YY=            -16.8644   ZZ=            -23.0813
   XY=              0.0000   XZ=              0.0000   YZ=              0.0000

 \\#P ROCCSD(T)=(maxcyc=150, Full, SaveAmplitudes, ReadAmplitudes)/Gen
 789651\PMP2-0=-87.4472231\CCSD=-87.4724772\CCSD(T)=-87.4909708\RMSD=5.
 Normal termination of Gaussian 16 at Mon Feb 26 08:36:22 2018.
