 Gaussian 16, Revision A.03,
 Gaussian 16:  ES64L-G16RevA.03 25-Dec-2016

 ----------------------------------------------------------------------
 #P ROCCSD(T)=(maxcyc=150, Full, SaveAmplitudes, ReadAmplitudes)/Gen 5d
  7f SCF=(maxcycles=300, VShift=400) Integral(NoXCTest) MaxDisk=500GB P
 op=Full Pseudo=Read Guess=Read
 ----------------------------------------------------------------------

 ---
 ScO
 ---
 Symbolic Z-matrix:
 Charge =  0 Multiplicity = 2

                         Standard orientation:
 ---------------------------------------------------------------------
 Center     Atomic      Atomic             Coordinates (Angstroms)
 Number     Number       Type             X           Y           Z
 ---------------------------------------------------------------------
      1         21           0        0.000000    0.000000    0.386207
      2          8           0        0.000000    0.000000   -1.013793
 ---------------------------------------------------------------------

 SCF Done:  E(ROHF) =  -61.8749760928     A.U. after   53 cycles
 E2 =    -0.6711803008D+00 EUMP2 =    -0.62546156393668D+02
 CCSD(T)
 CCSD(T)= -0.62573544903D+02

 The electronic state is 2-SG.
 Alpha  occ. eigenvalues --   -2.57795  -1.72158  -1.55703  -1.55703  -1.09583
 Alpha  occ. eigenvalues --   -0.52569  -0.52569  -0.46187  -0.20972
 Alpha virt. eigenvalues --    0.00832   0.00832   0.02196   0.02241   0.03747
 Alpha virt. eigenvalues --    0.03747   0.03832   0.03832   0.03989   0.04553
 Alpha virt. eigenvalues --    0.04553   0.07099   0.10390   0.10390   0.10985

 Mulliken charges and spin densities:
               1          2
     1  Sc   1.253902   0.987852
     2  O   -1.253902   0.012148
 Sum of Mulliken charges =  -0.00000   1.00000

 Dipole moment (field-independent basis, Debye):
    X=              0.0000    Y=             -0.0000    Z=              1.4782  Tot=              1.4782
 Quadrupole moment (field-independent basis, Debye-Ang):
   XX=            -22.3219   YY=            -22.3219   ZZ=            -30.4068
   XY=             -0.0000   XZ=              0.0000   YZ=              0.0000

 \\#P ROCCSD(T)=(maxcyc=150, Full, SaveAmplitudes, ReadAmplitudes)/Gen
 UHF=-61.8749761\PMP2-0=-62.5461564\CCSD=-62.5411077\CCSD(T)=-62.573544
 Normal termination of Gaussian 16 at Thu Apr 19 05:26:34 2018.
