 Gaussian 16, Revision A.03,
 Gaussian 16:  ES64L-G16RevA.03 25-Dec-2016

 ----------------------------------------------------------------------
 #P ROCCSD(T)=(maxcyc=150, Full, SaveAmplitudes, ReadAmplitudes)/Gen 5d
  7f SCF=(maxcycles=300, VShift=400) Integral(NoXCTest) MaxDisk=500GB P
 op=Full Pseudo=Read Guess=Read IOp(5/15=2)
 ----------------------------------------------------------------------

 ---
 ScH
 ---
 Symbolic Z-matrix:
 Charge =  0 Multiplicity = 1

                         Standard orientation:
 ---------------------------------------------------------------------
 Center     Atomic      Atomic             Coordinates (Angstroms)
 Number     Number       Type             X           Y           Z
 ---------------------------------------------------------------------
      1         21           0        0.000000    0.000000    0.054545
      2          1           0        0.000000    0.000000   -1.145455
 ---------------------------------------------------------------------

 SCF Done:  E(ROHF) =  -46.5586382821     A.U. after   30 cycles
 E2 =    -0.4172074836D+00 EUMP2 =    -0.46975845765651D+02
 CCSD(T)
 CCSD(T)= -0.47015457046D+02

 The electronic state is 1-SG.
 Alpha  occ. eigenvalues --   -2.61062  -1.64008  -1.59430  -1.59430  -0.46946
 Alpha  occ. eigenvalues --   -0.21434
 Alpha virt. eigenvalues --    0.01371   0.01371   0.01457   0.02238   0.03470
 Alpha virt. eigenvalues --    0.03911   0.03911   0.03948   0.03948   0.04878
 Alpha virt. eigenvalues --    0.04930   0.04930   0.09325   0.10619   0.10619

 Mulliken charges and spin densities:
               1          2
     1  Sc   0.493905  -0.000000
     2  H   -0.493905  -0.000000
 Sum of Mulliken charges =  -0.00000  -0.00000

 Dipole moment (field-independent basis, Debye):
    X=              0.0000    Y=              0.0000    Z=              0.7693  Tot=              0.7693
 Quadrupole moment (field-independent basis, Debye-Ang):
   XX=            -23.6926   YY=            -23.6926   ZZ=            -22.5988
   XY=              0.0000   XZ=              0.0000   YZ=              0.0000

 P ROCCSD(T)=(maxcyc=150, Full, SaveAmplitudes, ReadAmplitudes)/Gen 5d
 .9984909\CCSD=-46.9979812\CCSD(T)=-47.015457\RMSD=8.993e-09\PG=C*V [C*
 Normal termination of Gaussian 16 at Thu Apr 19 07:42:00 2018.
