 Gaussian 16, Revision A.03,
 Gaussian 16:  ES64L-G16RevA.03 25-Dec-2016

 ----------------------------------------------------------------------
 #P ROCCSD(T)=(MaxCyc=150, FrzINGC)/Gen SCF=(maxcycle=400) Integral(DKH
 SO, NoXCTest) Pop=Regular MaxDisk=500GB Guess=Read IOp(5/15=2)
 ----------------------------------------------------------------------

 --
 Co
 --
 Symbolic Z-matrix:
 Charge =  0 Multiplicity = 4

                         Standard orientation:
 ---------------------------------------------------------------------
 Center     Atomic      Atomic             Coordinates (Angstroms)
 Number     Number       Type             X           Y           Z
 ---------------------------------------------------------------------
      1         27           0        0.000000    0.000000    0.000000
 ---------------------------------------------------------------------

 SCF Done:  E(ROHF) =  -1391.88661025     A.U. after   15 cycles
 E2 =    -0.7832357380D+00 EUMP2 =    -0.13926698459830D+04
 CCSD(T)
 CCSD(T)= -0.13926613404D+04

 Unable to determine electronic state:  an orbital has unidentified symmetry.
 Alpha  occ. eigenvalues -- -285.78267 -35.51315 -30.27922 -30.27922 -30.27922
 Alpha  occ. eigenvalues --   -4.75416  -3.18749  -3.18749  -3.18749  -0.71743
 Alpha  occ. eigenvalues --   -0.71743  -0.71743  -0.66693  -0.66693  -0.28171
 Alpha virt. eigenvalues --    0.02091   0.02091   0.02091   0.02337   0.06666
 Alpha virt. eigenvalues --    0.06666   0.06666   0.06700   0.06700   0.06700
 Alpha virt. eigenvalues --    0.06707   0.06707   0.11542   0.20959   0.20959

 Mulliken charges and spin densities:
               1          2
     1  Co  -0.000000   3.000000
 Sum of Mulliken charges =  -0.00000   3.00000

 Dipole moment (field-independent basis, Debye):
    X=             -0.0000    Y=              0.0000    Z=             -0.0000  Tot=              0.0000
 Quadrupole moment (field-independent basis, Debye-Ang):
   XX=            -17.4314   YY=            -17.4314   ZZ=            -17.4314
   XY=              0.0000   XZ=              0.0000   YZ=              0.0000

 P ROCCSD(T)=(MaxCyc=150, FrzINGC)/Gen SCF=(maxcycle=400) Integral(DKHS
 1392.6450163\CCSD=-1392.6384898\CCSD(T)=-1392.6613404\RMSD=9.783e-10\P
 Normal termination of Gaussian 16 at Mon Apr  2 14:48:55 2018.
