 Gaussian 16, Revision A.03,
 Gaussian 16:  ES64L-G16RevA.03 25-Dec-2016

 ----------------------------------------------------------------------
 #P ROCCSD(T)=(maxcyc=150, Full, SaveAmplitudes, ReadAmplitudes)/Gen 5d
  7f SCF=(maxcycles=300) Integral(NoXCTest, DKHSO) MaxDisk=500GB Pop=Re
 gular Guess=Read
 ----------------------------------------------------------------------

 ---
 MnO
 ---
 Symbolic Z-matrix:
 Charge =  0 Multiplicity = 6

                         Standard orientation:
 ---------------------------------------------------------------------
 Center     Atomic      Atomic             Coordinates (Angstroms)
 Number     Number       Type             X           Y           Z
 ---------------------------------------------------------------------
      1         25           0        0.000000    0.000000    0.387879
      2          8           0        0.000000    0.000000   -1.212121
 ---------------------------------------------------------------------

 SCF Done:  E(ROHF) =  -1232.21883085     A.U. after   28 cycles
 E2 =    -0.1414092264D+01 EUMP2 =    -0.12336329231154D+04
 CCSD(T)
 CCSD(T)= -0.12336429057D+04

 The electronic state is 6-SG.
 Alpha  occ. eigenvalues -- -242.49903 -29.60167 -24.95788 -24.95788 -24.94983
 Alpha  occ. eigenvalues --  -20.44760  -4.07557  -2.72807  -2.72807  -2.71943
 Alpha  occ. eigenvalues --   -1.13174  -0.64435  -0.64435  -0.62539  -0.62539
 Alpha  occ. eigenvalues --   -0.56339  -0.35150  -0.35150  -0.34006
 Alpha virt. eigenvalues --   -0.03213   0.01542   0.01542   0.02055   0.03389
 Alpha virt. eigenvalues --    0.05824   0.05824   0.05978   0.05978   0.06294
 Alpha virt. eigenvalues --    0.07211   0.07211   0.11887   0.12882   0.17973

 Mulliken charges and spin densities:
               1          2
     1  Mn   1.174218   4.862268
     2  O   -1.174218   0.137732
 Sum of Mulliken charges =  -0.00000   5.00000

 Dipole moment (field-independent basis, Debye):
    X=             -0.0000    Y=             -0.0000    Z=              8.2206  Tot=              8.2206
 Quadrupole moment (field-independent basis, Debye-Ang):
   XX=            -19.1839   YY=            -19.1839   ZZ=            -23.3314
   XY=              0.0000   XZ=             -0.0000   YZ=             -0.0000

 \\#P ROCCSD(T)=(maxcyc=150, Full, SaveAmplitudes, ReadAmplitudes)/Gen
 2188309\PMP2-0=-1233.6329231\CCSD=-1233.5974026\CCSD(T)=-1233.6429057\
 Normal termination of Gaussian 16 at Wed Mar  7 06:32:29 2018.
