 Gaussian 16, Revision A.03,
 Gaussian 16:  ES64L-G16RevA.03 25-Dec-2016

 ----------------------------------------------------------------------
 #P ROCCSD(T)=(maxcyc=150, Full, SaveAmplitudes, ReadAmplitudes)/Gen 5d
  7f SCF=(maxcycles=300) Integral(NoXCTest) MaxDisk=500GB Pop=Regular P
 seudo=Read Guess=Read IOp(5/15=2)
 ----------------------------------------------------------------------

 ---
 MnO
 ---
 Symbolic Z-matrix:
 Charge =  0 Multiplicity = 6

                         Standard orientation:
 ---------------------------------------------------------------------
 Center     Atomic      Atomic             Coordinates (Angstroms)
 Number     Number       Type             X           Y           Z
 ---------------------------------------------------------------------
      1         25           0        0.000000    0.000000    0.436364
      2          8           0        0.000000    0.000000   -1.363636
 ---------------------------------------------------------------------

 SCF Done:  E(ROHF) =  -119.175631405     A.U. after   32 cycles
 E2 =    -0.8876259858D+00 EUMP2 =    -0.12006325739033D+03
 CCSD(T)
 CCSD(T)= -0.12009204620D+03

 The electronic state is 6-SG.
 Alpha  occ. eigenvalues --   -4.24454  -2.80060  -2.80060  -2.79478  -1.10647
 Alpha  occ. eigenvalues --   -0.65227  -0.65227  -0.64947  -0.64947  -0.61751
 Alpha  occ. eigenvalues --   -0.33777  -0.33777  -0.33191
 Alpha virt. eigenvalues --   -0.05205   0.01400   0.01400   0.01650   0.03827
 Alpha virt. eigenvalues --    0.06445   0.06445   0.08194   0.08357   0.08357
 Alpha virt. eigenvalues --    0.09462   0.09462   0.12863   0.14027   0.22690

 Mulliken charges and spin densities:
               1          2
     1  Mn   1.126183   4.927868
     2  O   -1.126183   0.072132
 Sum of Mulliken charges =  -0.00000   5.00000

 Dipole moment (field-independent basis, Debye):
    X=              0.0000    Y=              0.0000    Z=              9.4418  Tot=              9.4418
 Quadrupole moment (field-independent basis, Debye-Ang):
   XX=            -19.0652   YY=            -19.0652   ZZ=            -24.6265
   XY=              0.0000   XZ=              0.0000   YZ=              0.0000

 \\#P ROCCSD(T)=(maxcyc=150, Full, SaveAmplitudes, ReadAmplitudes)/Gen
 .0614312\CCSD=-120.0513476\CCSD(T)=-120.0920462\RMSD=6.981e-09\PG=C*V
 Normal termination of Gaussian 16 at Tue Mar 13 14:29:33 2018.
