 Gaussian 16, Revision A.03,
 Gaussian 16:  ES64L-G16RevA.03 25-Dec-2016

 ----------------------------------------------------------------------
 #P ROCCSD(T)=(maxcyc=150, Full, SaveAmplitudes, ReadAmplitudes)/Gen 5d
  7f SCF=(maxcycles=300) Integral(NoXCTest) MaxDisk=500GB Pop=Regular P
 seudo=Read Guess=Read IOp(5/15=2)
 ----------------------------------------------------------------------

 ---
 TiO
 ---
 Symbolic Z-matrix:
 Charge =  0 Multiplicity = 3

                         Standard orientation:
 ---------------------------------------------------------------------
 Center     Atomic      Atomic             Coordinates (Angstroms)
 Number     Number       Type             X           Y           Z
 ---------------------------------------------------------------------
      1         22           0        0.000000    0.000000    0.426667
      2          8           0        0.000000    0.000000   -1.173333
 ---------------------------------------------------------------------

 SCF Done:  E(ROHF) =  -73.5431595889     A.U. after   22 cycles
 E2 =    -0.7553145327D+00 EUMP2 =    -0.74298474121576D+02
 CCSD(T)
 CCSD(T)= -0.74328096711D+02

 Unable to determine electronic state:  an orbital has unidentified symmetry.
 Alpha  occ. eigenvalues --   -3.04148  -1.89733  -1.89733  -1.88507  -1.14876
 Alpha  occ. eigenvalues --   -0.46671  -0.45060  -0.45060  -0.44931  -0.26373
 Alpha virt. eigenvalues --    0.00350   0.00350   0.01607   0.02542   0.04096
 Alpha virt. eigenvalues --    0.04096   0.04802   0.04951   0.05180   0.05868
 Alpha virt. eigenvalues --    0.05868   0.06802   0.10831   0.11213   0.13785

 Mulliken charges and spin densities:
               1          2
     1  Ti   0.926806   1.998466
     2  O   -0.926806   0.001534
 Sum of Mulliken charges =  -0.00000   2.00000

 Dipole moment (field-independent basis, Debye):
    X=              0.0000    Y=              0.0000    Z=              4.1617  Tot=              4.1617
 Quadrupole moment (field-independent basis, Debye-Ang):
   XX=            -21.4173   YY=            -21.4173   ZZ=            -29.1588
   XY=              0.0000   XZ=              0.0000   YZ=              0.0000

 \\#P ROCCSD(T)=(maxcyc=150, Full, SaveAmplitudes, ReadAmplitudes)/Gen
 .2833801\CCSD(T)=-74.3280967\RMSD=2.186e-09\PG=C*V [C*(O1Ti1)]\\@
 Normal termination of Gaussian 16 at Mon Mar 12 14:23:11 2018.
