 Gaussian 16, Revision A.03,
 Gaussian 16:  ES64L-G16RevA.03 25-Dec-2016

 ----------------------------------------------------------------------
 #P ROCCSD(T)=(maxcyc=150, Full, SaveAmplitudes, ReadAmplitudes)/Gen 5d
  7f SCF=(maxcycles=300) Integral(NoXCTest) MaxDisk=500GB Pop=Regular P
 seudo=Read Guess=Read
 ----------------------------------------------------------------------

 ---
 TiO
 ---
 Symbolic Z-matrix:
 Charge =  0 Multiplicity = 3

                         Standard orientation:
 ---------------------------------------------------------------------
 Center     Atomic      Atomic             Coordinates (Angstroms)
 Number     Number       Type             X           Y           Z
 ---------------------------------------------------------------------
      1         22           0        0.000000    0.000000    0.320000
      2          8           0        0.000000    0.000000   -0.880000
 ---------------------------------------------------------------------

 SCF Done:  E(ROHF) =  -73.1304982980     A.U. after   20 cycles
 E2 =    -0.7564094568D+00 EUMP2 =    -0.73886907754882D+02
 CCSD(T)
 CCSD(T)= -0.73910673431D+02

 Unable to determine electronic state:  an orbital has unidentified symmetry.
 Alpha  occ. eigenvalues --   -2.96197  -2.01507  -1.80482  -1.80482  -1.12064
 Alpha  occ. eigenvalues --   -0.65688  -0.65688  -0.54531  -0.32866  -0.19973
 Alpha virt. eigenvalues --    0.01209   0.01209   0.01879   0.02590   0.03722
 Alpha virt. eigenvalues --    0.03722   0.03784   0.03826   0.03881   0.04793
 Alpha virt. eigenvalues --    0.04793   0.07240   0.10421   0.10872   0.11080

 Mulliken charges and spin densities:
               1          2
     1  Ti   0.736334   2.005484
     2  O   -0.736334  -0.005484
 Sum of Mulliken charges =  -0.00000   2.00000

 Dipole moment (field-independent basis, Debye):
    X=              0.0000    Y=              0.0000    Z=             -0.7170  Tot=              0.7170
 Quadrupole moment (field-independent basis, Debye-Ang):
   XX=            -22.5344   YY=            -22.5344   ZZ=            -26.4791
   XY=              0.0000   XZ=              0.0000   YZ=              0.0000

 \\#P ROCCSD(T)=(maxcyc=150, Full, SaveAmplitudes, ReadAmplitudes)/Gen
 -0=-73.8869078\CCSD=-73.8776625\CCSD(T)=-73.9106734\RMSD=2.880e-09\PG=
 Normal termination of Gaussian 16 at Sat Mar 10 19:32:31 2018.
