 Gaussian 16, Revision A.03,
 Gaussian 16:  ES64L-G16RevA.03 25-Dec-2016

 ----------------------------------------------------------------------
 #P ROCCSD(T)=(maxcyc=150, Full, SaveAmplitudes, ReadAmplitudes)/Gen 5d
  7f SCF=(maxcycles=300) Integral(NoXCTest) MaxDisk=500GB Pop=Regular P
 seudo=Read Guess=Read
 ----------------------------------------------------------------------

 ---
 TiO
 ---
 Symbolic Z-matrix:
 Charge =  0 Multiplicity = 3

                         Standard orientation:
 ---------------------------------------------------------------------
 Center     Atomic      Atomic             Coordinates (Angstroms)
 Number     Number       Type             X           Y           Z
 ---------------------------------------------------------------------
      1         22           0        0.000000    0.000000    0.373333
      2          8           0        0.000000    0.000000   -1.026667
 ---------------------------------------------------------------------

 SCF Done:  E(ROHF) =  -73.4725913855     A.U. after   20 cycles
 E2 =    -0.7780745402D+00 EUMP2 =    -0.74250665925733D+02
 CCSD(T)
 CCSD(T)= -0.74273935441D+02

 Unable to determine electronic state:  an orbital has unidentified symmetry.
 Alpha  occ. eigenvalues --   -2.98765  -1.90610  -1.83749  -1.83749  -1.16347
 Alpha  occ. eigenvalues --   -0.53431  -0.53431  -0.50223  -0.38567  -0.23397
 Alpha virt. eigenvalues --    0.00941   0.00941   0.02018   0.02302   0.03775
 Alpha virt. eigenvalues --    0.03830   0.03852   0.03852   0.03954   0.04377
 Alpha virt. eigenvalues --    0.04377   0.06742   0.10314   0.10459   0.11383

 Mulliken charges and spin densities:
               1          2
     1  Ti   1.012574   1.975413
     2  O   -1.012574   0.024587
 Sum of Mulliken charges =  -0.00000   2.00000

 Dipole moment (field-independent basis, Debye):
    X=              0.0000    Y=              0.0000    Z=              1.9419  Tot=              1.9419
 Quadrupole moment (field-independent basis, Debye-Ang):
   XX=            -21.6250   YY=            -21.6250   ZZ=            -27.7547
   XY=              0.0000   XZ=              0.0000   YZ=              0.0000

 \\#P ROCCSD(T)=(maxcyc=150, Full, SaveAmplitudes, ReadAmplitudes)/Gen
 -0=-74.2506659\CCSD=-74.2343731\CCSD(T)=-74.2739354\RMSD=6.203e-09\PG=
 Normal termination of Gaussian 16 at Mon Mar 12 15:35:18 2018.
