 Gaussian 16, Revision A.03,
 Gaussian 16:  ES64L-G16RevA.03 25-Dec-2016

 ----------------------------------------------------------------------
 #P ROCCSD(T)=(maxcyc=150, Full, SaveAmplitudes, ReadAmplitudes)/Gen 5d
  7f SCF=(maxcycles=300) Integral(NoXCTest) MaxDisk=500GB Pop=Regular P
 seudo=Read Guess=Read IOp(5/15=2)
 ----------------------------------------------------------------------

 ---
 TiO
 ---
 Symbolic Z-matrix:
 Charge =  0 Multiplicity = 3

                         Standard orientation:
 ---------------------------------------------------------------------
 Center     Atomic      Atomic             Coordinates (Angstroms)
 Number     Number       Type             X           Y           Z
 ---------------------------------------------------------------------
      1         22           0        0.000000    0.000000    0.426667
      2          8           0        0.000000    0.000000   -1.173333
 ---------------------------------------------------------------------

 SCF Done:  E(ROHF) =  -73.5257231345     A.U. after   22 cycles
 E2 =    -0.7494043175D+00 EUMP2 =    -0.74275127451972D+02
 CCSD(T)
 CCSD(T)= -0.74305525244D+02

 Unable to determine electronic state:  an orbital has unidentified symmetry.
 Alpha  occ. eigenvalues --   -3.04157  -1.89736  -1.89736  -1.88622  -1.16597
 Alpha  occ. eigenvalues --   -0.46694  -0.45086  -0.45086  -0.44934  -0.26376
 Alpha virt. eigenvalues --    0.00349   0.00349   0.01606   0.02542   0.04095
 Alpha virt. eigenvalues --    0.04095   0.04802   0.04950   0.05179   0.05868
 Alpha virt. eigenvalues --    0.05868   0.06803   0.10829   0.11213   0.13790

 Mulliken charges and spin densities:
               1          2
     1  Ti   0.927015   1.998479
     2  O   -0.927015   0.001521
 Sum of Mulliken charges =  -0.00000   2.00000

 Dipole moment (field-independent basis, Debye):
    X=              0.0000    Y=              0.0000    Z=              4.1642  Tot=              4.1642
 Quadrupole moment (field-independent basis, Debye-Ang):
   XX=            -21.4326   YY=            -21.4326   ZZ=            -29.1810
   XY=              0.0000   XZ=              0.0000   YZ=              0.0000

 \\#P ROCCSD(T)=(maxcyc=150, Full, SaveAmplitudes, ReadAmplitudes)/Gen
 .2611935\CCSD(T)=-74.3055252\RMSD=1.893e-09\PG=C*V [C*(O1Ti1)]\\@
 Normal termination of Gaussian 16 at Mon Mar 12 14:22:25 2018.
