 Gaussian 16, Revision A.03,
 Gaussian 16:  ES64L-G16RevA.03 25-Dec-2016

 ----------------------------------------------------------------------
 #P ROCCSD(T)=(maxcyc=150, Full, SaveAmplitudes, ReadAmplitudes)/Gen 5d
  7f SCF=(maxcycles=300) Integral(NoXCTest) MaxDisk=500GB Pop=Regular P
 seudo=Read Guess=Read IOp(5/15=2)
 ----------------------------------------------------------------------

 ---
 TiO
 ---
 Symbolic Z-matrix:
 Charge =  0 Multiplicity = 3

                         Standard orientation:
 ---------------------------------------------------------------------
 Center     Atomic      Atomic             Coordinates (Angstroms)
 Number     Number       Type             X           Y           Z
 ---------------------------------------------------------------------
      1         22           0        0.000000    0.000000    0.346667
      2          8           0        0.000000    0.000000   -0.953333
 ---------------------------------------------------------------------

 SCF Done:  E(ROHF) =  -73.4016715046     A.U. after   24 cycles
 E2 =    -0.7451486992D+00 EUMP2 =    -0.74146820203757D+02
 CCSD(T)
 CCSD(T)= -0.74171654346D+02

 Unable to determine electronic state:  an orbital has unidentified symmetry.
 Alpha  occ. eigenvalues --   -2.97166  -1.93965  -1.81049  -1.81049  -1.13270
 Alpha  occ. eigenvalues --   -0.58953  -0.58953  -0.52214  -0.35280  -0.21757
 Alpha virt. eigenvalues --    0.01179   0.01179   0.02320   0.02547   0.04797
 Alpha virt. eigenvalues --    0.04797   0.05012   0.05166   0.05329   0.05793
 Alpha virt. eigenvalues --    0.05793   0.08516   0.11825   0.13796   0.14599

 Mulliken charges and spin densities:
               1          2
     1  Ti   0.725842   2.039121
     2  O   -0.725842  -0.039121
 Sum of Mulliken charges =  -0.00000   2.00000

 Dipole moment (field-independent basis, Debye):
    X=              0.0000    Y=              0.0000    Z=              0.6698  Tot=              0.6698
 Quadrupole moment (field-independent basis, Debye-Ang):
   XX=            -21.9282   YY=            -21.9282   ZZ=            -27.0694
   XY=              0.0000   XZ=              0.0000   YZ=              0.0000

 \\#P ROCCSD(T)=(maxcyc=150, Full, SaveAmplitudes, ReadAmplitudes)/Gen
 .1365859\CCSD(T)=-74.1716543\RMSD=3.493e-09\PG=C*V [C*(O1Ti1)]\\@
 Normal termination of Gaussian 16 at Mon Mar 12 23:40:24 2018.
