 Gaussian 16, Revision A.03,
 Gaussian 16:  ES64L-G16RevA.03 25-Dec-2016

 ----------------------------------------------------------------------
 #P ROCCSD(T)=(maxcyc=150, Full, SaveAmplitudes, ReadAmplitudes)/Gen 5d
  7f SCF=(maxcycles=300) Integral(NoXCTest) MaxDisk=500GB Pop=Regular P
 seudo=Read Guess=Read
 ----------------------------------------------------------------------

 ---
 TiO
 ---
 Symbolic Z-matrix:
 Charge =  0 Multiplicity = 3

                         Standard orientation:
 ---------------------------------------------------------------------
 Center     Atomic      Atomic             Coordinates (Angstroms)
 Number     Number       Type             X           Y           Z
 ---------------------------------------------------------------------
      1         22           0        0.000000    0.000000    0.346667
      2          8           0        0.000000    0.000000   -0.953333
 ---------------------------------------------------------------------

 SCF Done:  E(ROHF) =  -73.4044853275     A.U. after   25 cycles
 E2 =    -0.7789658410D+00 EUMP2 =    -0.74183451168500D+02
 CCSD(T)
 CCSD(T)= -0.74205733107D+02

 Unable to determine electronic state:  an orbital has unidentified symmetry.
 Alpha  occ. eigenvalues --   -2.97100  -1.93904  -1.81028  -1.81028  -1.13222
 Alpha  occ. eigenvalues --   -0.58953  -0.58953  -0.52211  -0.35289  -0.21744
 Alpha virt. eigenvalues --    0.01125   0.01125   0.02114   0.02335   0.03785
 Alpha virt. eigenvalues --    0.03785   0.03805   0.03845   0.03859   0.04616
 Alpha virt. eigenvalues --    0.04616   0.07213   0.10377   0.10674   0.11225

 Mulliken charges and spin densities:
               1          2
     1  Ti   0.940864   1.990606
     2  O   -0.940864   0.009394
 Sum of Mulliken charges =  -0.00000   2.00000

 Dipole moment (field-independent basis, Debye):
    X=              0.0000    Y=              0.0000    Z=              0.6614  Tot=              0.6614
 Quadrupole moment (field-independent basis, Debye-Ang):
   XX=            -21.9247   YY=            -21.9247   ZZ=            -27.0633
   XY=              0.0000   XZ=              0.0000   YZ=              0.0000

 \\#P ROCCSD(T)=(maxcyc=150, Full, SaveAmplitudes, ReadAmplitudes)/Gen
 -0=-74.1834512\CCSD=-74.1689466\CCSD(T)=-74.2057331\RMSD=2.726e-09\PG=
 Normal termination of Gaussian 16 at Tue Mar 13 00:52:38 2018.
