 Gaussian 16, Revision A.03,
 Gaussian 16:  ES64L-G16RevA.03 25-Dec-2016

 ----------------------------------------------------------------------
 #P ROCCSD(T)=(maxcyc=150, Full, SaveAmplitudes, ReadAmplitudes)/Gen 5d
  7f SCF=(maxcycles=300, VShift=400) Integral(NoXCTest) MaxDisk=500GB P
 op=Full Pseudo=Read Guess=Read
 ----------------------------------------------------------------------

 ---
 ScO
 ---
 Symbolic Z-matrix:
 Charge =  0 Multiplicity = 2

                         Standard orientation:
 ---------------------------------------------------------------------
 Center     Atomic      Atomic             Coordinates (Angstroms)
 Number     Number       Type             X           Y           Z
 ---------------------------------------------------------------------
      1         21           0        0.000000    0.000000    0.358621
      2          8           0        0.000000    0.000000   -0.941379
 ---------------------------------------------------------------------

 SCF Done:  E(ROHF) =  -61.7821744128     A.U. after   54 cycles
 E2 =    -0.6630094973D+00 EUMP2 =    -0.62445183910116D+02
 CCSD(T)
 CCSD(T)= -0.62474008262D+02

 The electronic state is 2-SG.
 Alpha  occ. eigenvalues --   -2.57531  -1.76937  -1.53507  -1.53507  -1.06890
 Alpha  occ. eigenvalues --   -0.57954  -0.57954  -0.47220  -0.19380
 Alpha virt. eigenvalues --    0.00980   0.00980   0.02029   0.02518   0.03780
 Alpha virt. eigenvalues --    0.03780   0.03794   0.03794   0.03900   0.04774
 Alpha virt. eigenvalues --    0.04774   0.07331   0.10841   0.10841   0.11039

 Mulliken charges and spin densities:
               1          2
     1  Sc   1.188689   1.004858
     2  O   -1.188689  -0.004858
 Sum of Mulliken charges =  -0.00000   1.00000

 Dipole moment (field-independent basis, Debye):
    X=              0.0000    Y=              0.0000    Z=              0.1310  Tot=              0.1310
 Quadrupole moment (field-independent basis, Debye-Ang):
   XX=            -22.8124   YY=            -22.8124   ZZ=            -29.7145
   XY=              0.0000   XZ=              0.0000   YZ=              0.0000

 \\#P ROCCSD(T)=(maxcyc=150, Full, SaveAmplitudes, ReadAmplitudes)/Gen
 UHF=-61.7821744\PMP2-0=-62.4451839\CCSD=-62.4442232\CCSD(T)=-62.474008
 Normal termination of Gaussian 16 at Thu Apr 19 05:25:41 2018.
