 Gaussian 16, Revision A.03,
 Gaussian 16:  ES64L-G16RevA.03 25-Dec-2016

 ----------------------------------------------------------------------
 #P ROCCSD(T)=(MaxCyc=150, Window=(7,0))/Gen SCF=(maxcycle=400) Integra
 l(DKHSO, NoXCTest) Pop=Regular MaxDisk=500GB Guess=Read IOp(5/15=2)
 ----------------------------------------------------------------------

 ---
 ZnO
 ---
 Symbolic Z-matrix:
 Charge =  0 Multiplicity = 1

                         Standard orientation:
 ---------------------------------------------------------------------
 Center     Atomic      Atomic             Coordinates (Angstroms)
 Number     Number       Type             X           Y           Z
 ---------------------------------------------------------------------
      1         30           0        0.000000    0.000000    0.378947
      2          8           0        0.000000    0.000000   -1.421053
 ---------------------------------------------------------------------

 SCF Done:  E(ROHF) =  -1869.07227059     A.U. after   13 cycles
 E2 =    -0.1323705970D+01 EUMP2 =    -0.18703959765649D+04
 CCSD(T)
 CCSD(T)= -0.18703253405D+04

 The electronic state is 1-SG.
 Alpha  occ. eigenvalues -- -357.61996 -45.38640 -39.18998 -39.18998 -39.18765
 Alpha  occ. eigenvalues --  -20.52962  -5.85538  -3.93470  -3.93442  -3.93442
 Alpha  occ. eigenvalues --   -1.15044  -0.82411  -0.82411  -0.82077  -0.82077
 Alpha  occ. eigenvalues --   -0.80724  -0.41268  -0.41268  -0.36441
 Alpha virt. eigenvalues --   -0.04550   0.02530   0.02530   0.02682   0.04611
 Alpha virt. eigenvalues --    0.08615   0.08615   0.13236   0.17471   0.21808
 Alpha virt. eigenvalues --    0.23293   0.23293   0.24646   0.24646   0.30058

 Mulliken charges and spin densities:
               1          2
     1  Zn   0.912738   0.000000
     2  O   -0.912738   0.000000
 Sum of Mulliken charges =   0.00000   0.00000

 Dipole moment (field-independent basis, Debye):
    X=              0.0000    Y=              0.0000    Z=              6.6969  Tot=              6.6969
 Quadrupole moment (field-independent basis, Debye-Ang):
   XX=            -18.5705   YY=            -18.5705   ZZ=            -22.1618
   XY=              0.0000   XZ=              0.0000   YZ=              0.0000

 ROCCSD(T)=(MaxCyc=150, Window=(7,0))/Gen SCF=(maxcycle=400) Integral(D
 Normal termination of Gaussian 16 at Mon Apr 16 13:11:06 2018.
