 Gaussian 16, Revision A.03,
 Gaussian 16:  ES64L-G16RevA.03 25-Dec-2016

 ----------------------------------------------------------------------
 #P ROCCSD(T)=(maxcyc=150, Full, SaveAmplitudes, ReadAmplitudes)/Gen 5d
  7f SCF=(maxcycles=300) Integral(NoXCTest) MaxDisk=500GB Pop=Regular P
 seudo=Read Guess=Read IOp(5/15=2)
 ----------------------------------------------------------------------

 ---
 MnH
 ---
 Symbolic Z-matrix:
 Charge =  0 Multiplicity = 7

                         Standard orientation:
 ---------------------------------------------------------------------
 Center     Atomic      Atomic             Coordinates (Angstroms)
 Number     Number       Type             X           Y           Z
 ---------------------------------------------------------------------
      1         25           0        0.000000    0.000000    0.050000
      2          1           0        0.000000    0.000000   -1.250000
 ---------------------------------------------------------------------

 SCF Done:  E(ROHF) =  -104.173480255     A.U. after   28 cycles
 E2 =    -0.5906254209D+00 EUMP2 =    -0.10476410567595D+03
 CCSD(T)
 CCSD(T)= -0.10478467087D+03

 The electronic state is 7-SG.
 Alpha  occ. eigenvalues --   -4.16963  -2.76180  -2.75636  -2.75636  -0.67161
 Alpha  occ. eigenvalues --   -0.64251  -0.64251  -0.64065  -0.64065  -0.41948
 Alpha  occ. eigenvalues --   -0.24198
 Alpha virt. eigenvalues --    0.01410   0.01410   0.02144   0.03278   0.05903
 Alpha virt. eigenvalues --    0.05903   0.08516   0.08516   0.08592   0.08948
 Alpha virt. eigenvalues --    0.08948   0.09054   0.14173   0.21553   0.22847

 Mulliken charges and spin densities:
               1          2
     1  Mn   0.455221   5.940542
     2  H   -0.455221   0.059458
 Sum of Mulliken charges =  -0.00000   6.00000

 Dipole moment (field-independent basis, Debye):
    X=              0.0000    Y=              0.0000    Z=             -0.0265  Tot=              0.0265
 Quadrupole moment (field-independent basis, Debye-Ang):
   XX=            -15.8922   YY=            -15.8922   ZZ=            -25.2755
   XY=              0.0000   XZ=              0.0000   YZ=              0.0000

 \\#P ROCCSD(T)=(maxcyc=150, Full, SaveAmplitudes, ReadAmplitudes)/Gen
 .767004\CCSD=-104.7679858\CCSD(T)=-104.7846709\RMSD=4.501e-09\PG=C*V [
 Normal termination of Gaussian 16 at Mon Feb 26 01:04:04 2018.
