 Gaussian 16, Revision A.03,
 Gaussian 16:  ES64L-G16RevA.03 25-Dec-2016

 ----------------------------------------------------------------------
 #P ROCCSD(T)=(maxcyc=150, Full)/Gen 5d 7f SCF=(maxcycles=300, NoVarAcc
 , VShift=300) Integral(NoXCTest, DKHSO) MaxDisk=100GB Pop=Regular IOp(
 5/15=2)
 ----------------------------------------------------------------------

 --
 Cr
 --
 Symbolic Z-matrix:
 Charge =  0 Multiplicity = 7

                         Standard orientation:
 ---------------------------------------------------------------------
 Center     Atomic      Atomic             Coordinates (Angstroms)
 Number     Number       Type             X           Y           Z
 ---------------------------------------------------------------------
      1         24           0        0.000000    0.000000    0.000000
 ---------------------------------------------------------------------

 SCF Done:  E(ROHF) =  -1049.66418227     A.U. after   59 cycles
 E2 =    -0.9515084713D+00 EUMP2 =    -0.10506156907390D+04
 CCSD(T)
 CCSD(T)= -0.10506133336D+04

 Unable to determine electronic state:  an orbital has unidentified symmetry.
 Alpha  occ. eigenvalues -- -222.03473 -26.60968 -22.24617 -22.24617 -22.24617
 Alpha  occ. eigenvalues --   -3.51415  -2.27176  -2.27176  -2.27176  -0.36688
 Alpha  occ. eigenvalues --   -0.36688  -0.36688  -0.36688  -0.36688  -0.22622
 Alpha virt. eigenvalues --    0.01714   0.01714   0.01714   0.02416   0.05524
 Alpha virt. eigenvalues --    0.05524   0.05524   0.05524   0.05524   0.05931
 Alpha virt. eigenvalues --    0.05931   0.05931   0.12723   0.17961   0.17961

 Mulliken charges and spin densities:
               1          2
     1  Cr  -0.000000   6.000000
 Sum of Mulliken charges =  -0.00000   6.00000

 Dipole moment (field-independent basis, Debye):
    X=              0.0000    Y=              0.0000    Z=              0.0000  Tot=              0.0000
 Quadrupole moment (field-independent basis, Debye-Ang):
   XX=            -16.7521   YY=            -16.7521   ZZ=            -16.7521
   XY=              0.0000   XZ=             -0.0000   YZ=              0.0000

 1\1\GINC-C506-001\SP\ROCCSD(T)-Full\Gen\Cr1(7)\AANNABE\07-Mar-2018\0\\
 #P ROCCSD(T)=(maxcyc=150, Full)/Gen 5d 7f SCF=(maxcycles=300, NoVarAcc
 , VShift=300) Integral(NoXCTest, DKHSO) MaxDisk=100GB Pop=Regular IOp(
 5/15=2)\\Cr\\0,7\Cr,0,0.,0.,0.\\Version=ES64L-G16RevA.03\State=7-A1G\H
 F=-1049.6641823\MP2=-1050.6156907\MP3=-1050.5902962\PUHF=-1049.6641823
 \PMP2-0=-1050.6156907\MP4SDQ=-1050.5971788\CCSD=-1050.5951427\CCSD(T)=
 -1050.6133336\RMSD=9.868e-09\PG=OH [O(Cr1)]\\@

 Normal termination of Gaussian 16 at Wed Mar  7 17:21:30 2018.
