 Gaussian 16, Revision A.03,
 Gaussian 16:  ES64L-G16RevA.03 25-Dec-2016

 ----------------------------------------------------------------------
 #P ROCCSD(T)=(maxcyc=150, Full, SaveAmplitudes, ReadAmplitudes)/Gen 5d
  7f SCF=(maxcycles=300) Integral(NoXCTest) MaxDisk=500GB Pop=Regular P
 seudo=Read Guess=Read
 ----------------------------------------------------------------------

 ---
 ScO
 ---
 Symbolic Z-matrix:
 Charge =  0 Multiplicity = 2

                         Standard orientation:
 ---------------------------------------------------------------------
 Center     Atomic      Atomic             Coordinates (Angstroms)
 Number     Number       Type             X           Y           Z
 ---------------------------------------------------------------------
      1         21           0        0.000000    0.000000    0.551724
      2          8           0        0.000000    0.000000   -1.448276
 ---------------------------------------------------------------------

 SCF Done:  E(ROHF) =  -62.0160328805     A.U. after   17 cycles
 E2 =    -0.7301702422D+00 EUMP2 =    -0.62746203122634D+02
 CCSD(T)
 CCSD(T)= -0.62776003788D+02

 The electronic state is 2-SG.
 Alpha  occ. eigenvalues --   -2.77201  -1.70884  -1.70884  -1.70354  -1.08687
 Alpha  occ. eigenvalues --   -0.38882  -0.34640  -0.34640  -0.28478
 Alpha virt. eigenvalues --   -0.01315  -0.01315   0.00463   0.01633   0.02377
 Alpha virt. eigenvalues --    0.02377   0.02526   0.02526   0.03042   0.03307
 Alpha virt. eigenvalues --    0.03307   0.04053   0.04457   0.04457   0.08602

 Mulliken charges and spin densities:
               1          2
     1  Sc   1.193071   0.980107
     2  O   -1.193071   0.019893
 Sum of Mulliken charges =  -0.00000   1.00000

 Dipole moment (field-independent basis, Debye):
    X=              0.0000    Y=              0.0000    Z=              7.5156  Tot=              7.5156
 Quadrupole moment (field-independent basis, Debye-Ang):
   XX=            -22.0437   YY=            -22.0437   ZZ=            -34.6314
   XY=              0.0000   XZ=              0.0000   YZ=              0.0000

 \\#P ROCCSD(T)=(maxcyc=150, Full, SaveAmplitudes, ReadAmplitudes)/Gen
 60329\PMP2-0=-62.7462031\CCSD=-62.7221375\CCSD(T)=-62.7760038\RMSD=4.0
 Normal termination of Gaussian 16 at Wed Feb 21 09:28:43 2018.
