 Gaussian 16, Revision A.03,
 Gaussian 16:  ES64L-G16RevA.03 25-Dec-2016

 ----------------------------------------------------------------------
 #P ROCCSD(T)=(MaxCyc=150, Full)/Gen SCF=(maxcycle=400) Pseudo=Read Int
 egral(NoXCTest) Pop=Regular MaxDisk=500GB Guess=Read IOp(5/15=2)
 ----------------------------------------------------------------------

 ---
 NiO
 ---
 Symbolic Z-matrix:
 Charge =  0 Multiplicity = 3

                         Standard orientation:
 ---------------------------------------------------------------------
 Center     Atomic      Atomic             Coordinates (Angstroms)
 Number     Number       Type             X           Y           Z
 ---------------------------------------------------------------------
      1         28           0        0.000000    0.000000    0.288889
      2          8           0        0.000000    0.000000   -1.011111
 ---------------------------------------------------------------------

 SCF Done:  E(ROHF) =  -185.489805891     A.U. after   23 cycles
 E2 =    -0.1250584260D+01 EUMP2 =    -0.18674039015094D+03
 CCSD(T)
 CCSD(T)= -0.18671177656D+03

 The electronic state is 3-SG.
 Alpha  occ. eigenvalues --   -5.18105  -3.56928  -3.45652  -3.45652  -1.30486
 Alpha  occ. eigenvalues --   -0.83686  -0.83686  -0.72497  -0.69158  -0.69158
 Alpha  occ. eigenvalues --   -0.45115  -0.45115  -0.35826
 Alpha virt. eigenvalues --   -0.01382   0.02839   0.02839   0.03762   0.03958
 Alpha virt. eigenvalues --    0.09552   0.09552   0.11485   0.12710   0.12710
 Alpha virt. eigenvalues --    0.13008   0.13008   0.14637   0.17916   0.26149

 Mulliken charges and spin densities:
               1          2
     1  Ni   0.959402   1.683526
     2  O   -0.959402   0.316474
 Sum of Mulliken charges =  -0.00000   2.00000

 Dipole moment (field-independent basis, Debye):
    X=              0.0000    Y=              0.0000    Z=              4.9545  Tot=              4.9545
 Quadrupole moment (field-independent basis, Debye-Ang):
   XX=            -18.3996   YY=            -18.3996   ZZ=            -18.7907
   XY=              0.0000   XZ=              0.0000   YZ=              0.0000

 \\#P ROCCSD(T)=(MaxCyc=150, Full)/Gen SCF=(maxcycle=400) Pseudo=Read I
 PMP2-0=-186.7403902\MP4SDQ=-186.7034975\CCSD=-186.657875\CCSD(T)=-186.
 Normal termination of Gaussian 16 at Tue Mar 27 00:40:49 2018.
