 Gaussian 16, Revision A.03,
 Gaussian 16:  ES64L-G16RevA.03 25-Dec-2016

 ----------------------------------------------------------------------
 #P ROCCSD(T)=(MaxCyc=150, Full)/Gen SCF=(maxcycle=400) Pseudo=Read Int
 egral(NoXCTest) Pop=Regular MaxDisk=500GB Guess=Read IOp(5/15=2)
 ----------------------------------------------------------------------

 ---
 NiO
 ---
 Symbolic Z-matrix:
 Charge =  0 Multiplicity = 3

                         Standard orientation:
 ---------------------------------------------------------------------
 Center     Atomic      Atomic             Coordinates (Angstroms)
 Number     Number       Type             X           Y           Z
 ---------------------------------------------------------------------
      1         28           0        0.000000    0.000000    0.288889
      2          8           0        0.000000    0.000000   -1.011111
 ---------------------------------------------------------------------

 SCF Done:  E(ROHF) =  -185.494007264     A.U. after   21 cycles
 E2 =    -0.1308415637D+01 EUMP2 =    -0.18680242290052D+03
 CCSD(T)
 CCSD(T)= -0.18677149139D+03

 The electronic state is 3-SG.
 Alpha  occ. eigenvalues --   -5.18100  -3.56905  -3.45642  -3.45642  -1.30424
 Alpha  occ. eigenvalues --   -0.83689  -0.83689  -0.72489  -0.69161  -0.69161
 Alpha  occ. eigenvalues --   -0.45127  -0.45127  -0.35813
 Alpha virt. eigenvalues --   -0.01389   0.02484   0.02484   0.03355   0.03702
 Alpha virt. eigenvalues --    0.07591   0.07591   0.07826   0.08289   0.08289
 Alpha virt. eigenvalues --    0.09670   0.09670   0.12511   0.16417   0.22521

 Mulliken charges and spin densities:
               1          2
     1  Ni   0.743461   1.692098
     2  O   -0.743461   0.307902
 Sum of Mulliken charges =  -0.00000   2.00000

 Dipole moment (field-independent basis, Debye):
    X=              0.0000    Y=              0.0000    Z=              4.9422  Tot=              4.9422
 Quadrupole moment (field-independent basis, Debye-Ang):
   XX=            -18.3951   YY=            -18.3951   ZZ=            -18.7764
   XY=              0.0000   XZ=              0.0000   YZ=              0.0000

 \\#P ROCCSD(T)=(MaxCyc=150, Full)/Gen SCF=(maxcycle=400) Pseudo=Read I
 PMP2-0=-186.8024229\MP4SDQ=-186.7597434\CCSD=-186.7150041\CCSD(T)=-186
 Normal termination of Gaussian 16 at Tue Mar 27 03:05:07 2018.
