 Gaussian 16, Revision A.03,
 Gaussian 16:  ES64L-G16RevA.03 25-Dec-2016

 ----------------------------------------------------------------------
 #P ROCCSD(T)=(maxcyc=150, Full, SaveAmplitudes, ReadAmplitudes)/Gen 5d
  7f SCF=(maxcycles=300, VShift=400) Integral(NoXCTest) MaxDisk=500GB P
 op=Full Pseudo=Read Guess=Read IOp(5/15=2)
 ----------------------------------------------------------------------

 ---
 CrO
 ---
 Symbolic Z-matrix:
 Charge =  0 Multiplicity = 5

                         Standard orientation:
 ---------------------------------------------------------------------
 Center     Atomic      Atomic             Coordinates (Angstroms)
 Number     Number       Type             X           Y           Z
 ---------------------------------------------------------------------
      1         24           0        0.000000    0.000000    0.475000
      2          8           0        0.000000    0.000000   -1.425000
 ---------------------------------------------------------------------

 SCF Done:  E(ROHF) =  -101.994725215     A.U. after   90 cycles
 E2 =    -0.8553820505D+00 EUMP2 =    -0.10285010726560D+03
 CCSD(T)
 CCSD(T)= -0.10290568627D+03

 Unable to determine electronic state:  an orbital has unidentified symmetry.
 Alpha  occ. eigenvalues --   -3.78360  -2.50230  -2.45121  -2.44392  -1.07883
 Alpha  occ. eigenvalues --   -0.59450  -0.57177  -0.56958  -0.54242  -0.33627
 Alpha  occ. eigenvalues --   -0.33123  -0.31882
 Alpha virt. eigenvalues --   -0.05154   0.00587   0.01211   0.01589   0.03695
 Alpha virt. eigenvalues --    0.04841   0.05989   0.07340   0.07344   0.07621
 Alpha virt. eigenvalues --    0.08330   0.08571   0.12608   0.12804   0.15474

 Mulliken charges and spin densities:
               1          2
     1  Cr   1.117800   3.968175
     2  O   -1.117800   0.031825
 Sum of Mulliken charges =  -0.00000   4.00000

 Dipole moment (field-independent basis, Debye):
    X=              0.0000    Y=              0.0000    Z=             10.0016  Tot=             10.0016
 Quadrupole moment (field-independent basis, Debye-Ang):
   XX=            -19.6961   YY=            -19.0269   ZZ=            -24.8316
   XY=              0.0000   XZ=              0.0000   YZ=              0.0000

 \\#P ROCCSD(T)=(maxcyc=150, Full, SaveAmplitudes, ReadAmplitudes)/Gen
 60752\CCSD=-102.8511548\CCSD(T)=-102.9056863\RMSD=9.960e-09\PG=C*V [C*
 Normal termination of Gaussian 16 at Sun Mar 18 17:16:21 2018.
