 Gaussian 16, Revision A.03,
 Gaussian 16:  ES64L-G16RevA.03 25-Dec-2016

 ----------------------------------------------------------------------
 #P ROCCSD(T)=(MaxCyc=150, Full)/Gen SCF=(maxcycle=400, vshift=200) Pse
 udo=Read Integral(NoXCTest) Pop=Regular MaxDisk=500GB Guess=Read IOp(5
 /15=2)
 ----------------------------------------------------------------------

 ---
 CoH
 ---
 Symbolic Z-matrix:
 Charge =  0 Multiplicity = 3

                         Standard orientation:
 ---------------------------------------------------------------------
 Center     Atomic      Atomic             Coordinates (Angstroms)
 Number     Number       Type             X           Y           Z
 ---------------------------------------------------------------------
      1         27           0        0.000000    0.000000    0.057143
      2          1           0        0.000000    0.000000   -1.542857
 ---------------------------------------------------------------------

 SCF Done:  E(ROHF) =  -145.421003575     A.U. after   34 cycles
 E2 =    -0.9116187731D+00 EUMP2 =    -0.14633262234838D+03
 CCSD(T)
 CCSD(T)= -0.14631565106D+03

 Unable to determine electronic state:  partially filled degenerate orbitals.
 Alpha  occ. eigenvalues --   -4.40089  -2.92265  -2.92206  -2.92206  -0.48873
 Alpha  occ. eigenvalues --   -0.48738  -0.44015  -0.43698  -0.43698  -0.32754
 Alpha virt. eigenvalues --   -0.00189   0.02396   0.02396   0.03076   0.04510
 Alpha virt. eigenvalues --    0.06988   0.07316   0.07330   0.07558   0.07558
 Alpha virt. eigenvalues --    0.08558   0.08558   0.10119   0.18129   0.19904

 Mulliken charges and spin densities:
               1          2
     1  Co   0.359306   1.994234
     2  H   -0.359306   0.005766
 Sum of Mulliken charges =  -0.00000   2.00000

 Dipole moment (field-independent basis, Debye):
    X=              0.0000    Y=              0.0000    Z=              4.5197  Tot=              4.5197
 Quadrupole moment (field-independent basis, Debye-Ang):
   XX=            -13.8367   YY=            -13.8367   ZZ=            -18.1905
   XY=              0.0000   XZ=              0.0000   YZ=              0.0000

 \\#P ROCCSD(T)=(MaxCyc=150, Full)/Gen SCF=(maxcycle=400, vshift=200) P
 \PMP2-0=-146.3326223\MP4SDQ=-146.3068736\CCSD=-146.2834097\CCSD(T)=-14
 Normal termination of Gaussian 16 at Sat Apr 21 23:36:49 2018.
