 Gaussian 16, Revision A.03,
 Gaussian 16:  ES64L-G16RevA.03 25-Dec-2016

 ----------------------------------------------------------------------
 #P ROCCSD(T)=(MaxCyc=150, Full)/Gen SCF=(maxcycle=400, vshift=200) Pse
 udo=Read Integral(NoXCTest) Pop=Regular MaxDisk=500GB Guess=Read IOp(5
 /15=2)
 ----------------------------------------------------------------------

 ---
 CoH
 ---
 Symbolic Z-matrix:
 Charge =  0 Multiplicity = 3

                         Standard orientation:
 ---------------------------------------------------------------------
 Center     Atomic      Atomic             Coordinates (Angstroms)
 Number     Number       Type             X           Y           Z
 ---------------------------------------------------------------------
      1         27           0        0.000000    0.000000    0.057143
      2          1           0        0.000000    0.000000   -1.542857
 ---------------------------------------------------------------------

 SCF Done:  E(ROHF) =  -145.419368601     A.U. after   69 cycles
 E2 =    -0.8704816136D+00 EUMP2 =    -0.14628985021471D+03
 CCSD(T)
 CCSD(T)= -0.14627457539D+03

 Unable to determine electronic state:  partially filled degenerate orbitals.
 Alpha  occ. eigenvalues --   -4.40128  -2.92280  -2.92221  -2.92221  -0.48865
 Alpha  occ. eigenvalues --   -0.48727  -0.44005  -0.43685  -0.43685  -0.32753
 Alpha virt. eigenvalues --   -0.00169   0.02647   0.02647   0.03397   0.04789
 Alpha virt. eigenvalues --    0.09356   0.09356   0.10175   0.11276   0.11320
 Alpha virt. eigenvalues --    0.11529   0.11529   0.11580   0.18816   0.24898

 Mulliken charges and spin densities:
               1          2
     1  Co   0.373463   1.984579
     2  H   -0.373463   0.015421
 Sum of Mulliken charges =  -0.00000   2.00000

 Dipole moment (field-independent basis, Debye):
    X=              0.0000    Y=              0.0000    Z=              4.5237  Tot=              4.5237
 Quadrupole moment (field-independent basis, Debye-Ang):
   XX=            -13.8508   YY=            -13.8508   ZZ=            -18.1860
   XY=              0.0000   XZ=              0.0000   YZ=              0.0000

 \\#P ROCCSD(T)=(MaxCyc=150, Full)/Gen SCF=(maxcycle=400, vshift=200) P
 \PMP2-0=-146.2898502\MP4SDQ=-146.2678393\CCSD=-146.2438956\CCSD(T)=-14
 Normal termination of Gaussian 16 at Sat Apr 21 22:52:33 2018.
