 Gaussian 16, Revision A.03,
 Gaussian 16:  ES64L-G16RevA.03 25-Dec-2016

 ----------------------------------------------------------------------
 #P ROCCSD(T)=(MaxCyc=150, Full)/Gen SCF=(maxcycle=400, vshift=200) Pse
 udo=Read Integral(NoXCTest) Pop=Regular MaxDisk=500GB Guess=Read IOp(5
 /15=2)
 ----------------------------------------------------------------------

 ---
 CoH
 ---
 Symbolic Z-matrix:
 Charge =  0 Multiplicity = 3

                         Standard orientation:
 ---------------------------------------------------------------------
 Center     Atomic      Atomic             Coordinates (Angstroms)
 Number     Number       Type             X           Y           Z
 ---------------------------------------------------------------------
      1         27           0        0.000000    0.000000    0.057143
      2          1           0        0.000000    0.000000   -1.542857
 ---------------------------------------------------------------------

 SCF Done:  E(ROHF) =  -145.421496307     A.U. after   26 cycles
 E2 =    -0.9313822281D+00 EUMP2 =    -0.14635287853483D+03
 CCSD(T)
 CCSD(T)= -0.14633363362D+03

 Unable to determine electronic state:  partially filled degenerate orbitals.
 Alpha  occ. eigenvalues --   -4.40104  -2.92264  -2.92204  -2.92203  -0.48871
 Alpha  occ. eigenvalues --   -0.48736  -0.44020  -0.43704  -0.43703  -0.32755
 Alpha virt. eigenvalues --   -0.00231   0.02318   0.02318   0.02760   0.03894
 Alpha virt. eigenvalues --    0.06417   0.06612   0.06623   0.06884   0.06884
 Alpha virt. eigenvalues --    0.08165   0.08165   0.08820   0.14405   0.18032

 Mulliken charges and spin densities:
               1          2
     1  Co   0.330002   1.991290
     2  H   -0.330002   0.008710
 Sum of Mulliken charges =  -0.00000   2.00000

 Dipole moment (field-independent basis, Debye):
    X=              0.0000    Y=              0.0000    Z=              4.5190  Tot=              4.5190
 Quadrupole moment (field-independent basis, Debye-Ang):
   XX=            -13.8360   YY=            -13.8360   ZZ=            -18.1907
   XY=              0.0000   XZ=              0.0000   YZ=              0.0000

 \\#P ROCCSD(T)=(MaxCyc=150, Full)/Gen SCF=(maxcycle=400, vshift=200) P
 \PMP2-0=-146.3528785\MP4SDQ=-146.3239489\CCSD=-146.300811\CCSD(T)=-146
 Normal termination of Gaussian 16 at Sat Apr 28 21:07:01 2018.
