 Gaussian 16, Revision A.03,
 Gaussian 16:  ES64L-G16RevA.03 25-Dec-2016

 ----------------------------------------------------------------------
 #P ROCCSD(T)=(maxcyc=150, Full, SaveAmplitudes, ReadAmplitudes)/Gen 5d
  7f SCF=(maxcycles=300, VShift=400) Integral(NoXCTest) MaxDisk=500GB P
 op=Full Pseudo=Read Guess=Read
 ----------------------------------------------------------------------

 ---
 ScO
 ---
 Symbolic Z-matrix:
 Charge =  0 Multiplicity = 2

                         Standard orientation:
 ---------------------------------------------------------------------
 Center     Atomic      Atomic             Coordinates (Angstroms)
 Number     Number       Type             X           Y           Z
 ---------------------------------------------------------------------
      1         21           0        0.000000    0.000000    0.551724
      2          8           0        0.000000    0.000000   -1.448276
 ---------------------------------------------------------------------

 SCF Done:  E(ROHF) =  -61.8785407319     A.U. after   44 cycles
 E2 =    -0.6964428504D+00 EUMP2 =    -0.62574983582307D+02
 CCSD(T)
 CCSD(T)= -0.62608804041D+02

 The electronic state is 2-SG.
 Alpha  occ. eigenvalues --   -2.72580  -1.71364  -1.71364  -1.70814  -1.09868
 Alpha  occ. eigenvalues --   -0.38994  -0.34762  -0.34762  -0.28302
 Alpha virt. eigenvalues --   -0.01362  -0.01362   0.00573   0.01721   0.02811
 Alpha virt. eigenvalues --    0.02811   0.03102   0.03102   0.03704   0.04378
 Alpha virt. eigenvalues --    0.04378   0.04985   0.05096   0.05096   0.09690

 Mulliken charges and spin densities:
               1          2
     1  Sc   1.185754   0.978194
     2  O   -1.185754   0.021806
 Sum of Mulliken charges =  -0.00000   1.00000

 Dipole moment (field-independent basis, Debye):
    X=              0.0000    Y=              0.0000    Z=              7.4112  Tot=              7.4112
 Quadrupole moment (field-independent basis, Debye-Ang):
   XX=            -22.1053   YY=            -22.1053   ZZ=            -35.0500
   XY=              0.0000   XZ=             -0.0000   YZ=             -0.0000

 \\#P ROCCSD(T)=(maxcyc=150, Full, SaveAmplitudes, ReadAmplitudes)/Gen
 HF=-61.8785407\PMP2-0=-62.5749836\CCSD=-62.5573204\CCSD(T)=-62.608804\
 Normal termination of Gaussian 16 at Thu Apr 19 08:09:02 2018.
