 Gaussian 16, Revision A.03,
 Gaussian 16:  ES64L-G16RevA.03 25-Dec-2016

 ----------------------------------------------------------------------
 #P ROCCSD(T)=(maxcyc=150, Full)/Gen 5d 7f SCF=(maxcycles=300) Integral
 (NoXCTest) MaxDisk=500GB Pop=Regular Pseudo=Read
 ----------------------------------------------------------------------

 ---
 MnH
 ---
 Symbolic Z-matrix:
 Charge =  0 Multiplicity = 7

                         Standard orientation:
 ---------------------------------------------------------------------
 Center     Atomic      Atomic             Coordinates (Angstroms)
 Number     Number       Type             X           Y           Z
 ---------------------------------------------------------------------
      1         25           0        0.000000    0.000000    0.050000
      2          1           0        0.000000    0.000000   -1.250000
 ---------------------------------------------------------------------

 SCF Done:  E(ROHF) =  -103.991029818     A.U. after   26 cycles
 E2 =    -0.5856317979D+00 EUMP2 =    -0.10457666161628D+03
 CCSD(T)
 CCSD(T)= -0.10459771412D+03

 The electronic state is 7-SG.
 Alpha  occ. eigenvalues --   -4.15518  -2.80437  -2.79955  -2.79955  -0.66578
 Alpha  occ. eigenvalues --   -0.63487  -0.63487  -0.63276  -0.63276  -0.41687
 Alpha  occ. eigenvalues --   -0.24357
 Alpha virt. eigenvalues --    0.01371   0.01371   0.02147   0.03276   0.05837
 Alpha virt. eigenvalues --    0.05837   0.08522   0.08522   0.08607   0.08954
 Alpha virt. eigenvalues --    0.08954   0.09065   0.14180   0.21589   0.22712

 Mulliken charges and spin densities:
               1          2
     1  Mn   0.453142   5.942717
     2  H   -0.453142   0.057283
 Sum of Mulliken charges =  -0.00000   6.00000

 Dipole moment (field-independent basis, Debye):
    X=              0.0000    Y=              0.0000    Z=             -0.0299  Tot=              0.0299
 Quadrupole moment (field-independent basis, Debye-Ang):
   XX=            -15.9548   YY=            -15.9548   ZZ=            -25.3166
   XY=              0.0000   XZ=              0.0000   YZ=              0.0000

 \\#P ROCCSD(T)=(maxcyc=150, Full)/Gen 5d 7f SCF=(maxcycles=300) Integr
 616\MP4SDQ=-104.5801516\CCSD=-104.5812706\CCSD(T)=-104.5977141\RMSD=7.
 Normal termination of Gaussian 16 at Mon Feb 12 22:25:59 2018.
