 Gaussian 16, Revision A.03,
 Gaussian 16:  ES64L-G16RevA.03 25-Dec-2016

 ----------------------------------------------------------------------
 #P ROCCSD(T)=(maxcyc=150, Full, SaveAmplitudes, ReadAmplitudes)/Gen 5d
  7f SCF=(maxcycles=300) Integral(NoXCTest) MaxDisk=500GB Pop=Regular P
 seudo=Read Guess=Read IOp(5/15=2)
 ----------------------------------------------------------------------

 ---
 ScO
 ---
 Symbolic Z-matrix:
 Charge =  0 Multiplicity = 2

                         Standard orientation:
 ---------------------------------------------------------------------
 Center     Atomic      Atomic             Coordinates (Angstroms)
 Number     Number       Type             X           Y           Z
 ---------------------------------------------------------------------
      1         21           0        0.000000    0.000000    0.358621
      2          8           0        0.000000    0.000000   -0.941379
 ---------------------------------------------------------------------

 SCF Done:  E(ROHF) =  -61.9017528581     A.U. after   18 cycles
 E2 =    -0.6632932640D+00 EUMP2 =    -0.62565046122160D+02
 CCSD(T)
 CCSD(T)= -0.62593583127D+02

 The electronic state is 2-SG.
 Alpha  occ. eigenvalues --   -2.61695  -1.76858  -1.53066  -1.53066  -1.06720
 Alpha  occ. eigenvalues --   -0.57721  -0.57721  -0.47090  -0.19549
 Alpha virt. eigenvalues --    0.01007   0.01007   0.02051   0.02479   0.03786
 Alpha virt. eigenvalues --    0.03786   0.03805   0.03805   0.03907   0.04788
 Alpha virt. eigenvalues --    0.04788   0.07364   0.10886   0.10886   0.10979

 Mulliken charges and spin densities:
               1          2
     1  Sc   1.182000   1.006892
     2  O   -1.182000  -0.006892
 Sum of Mulliken charges =  -0.00000   1.00000

 Dipole moment (field-independent basis, Debye):
    X=              0.0000    Y=              0.0000    Z=              0.2537  Tot=              0.2537
 Quadrupole moment (field-independent basis, Debye-Ang):
   XX=            -22.6774   YY=            -22.6774   ZZ=            -29.3813
   XY=              0.0000   XZ=              0.0000   YZ=              0.0000

 \\#P ROCCSD(T)=(maxcyc=150, Full, SaveAmplitudes, ReadAmplitudes)/Gen
 3\CCSD=-62.5637648\CCSD(T)=-62.5935831\RMSD=5.680e-09\PG=C*V [C*(O1Sc1
 Normal termination of Gaussian 16 at Tue Feb 27 13:05:50 2018.
