 Gaussian 16, Revision A.03,
 Gaussian 16:  ES64L-G16RevA.03 25-Dec-2016

 ----------------------------------------------------------------------
 #P ROCCSD(T)=(maxcyc=150, Full, SaveAmplitudes, ReadAmplitudes)/Gen 5d
  7f SCF=(maxcycles=300) Integral(NoXCTest) MaxDisk=500GB Pop=Regular P
 seudo=Read Guess=Read IOp(5/15=2)
 ----------------------------------------------------------------------

 ---
 MnH
 ---
 Symbolic Z-matrix:
 Charge =  0 Multiplicity = 7

                         Standard orientation:
 ---------------------------------------------------------------------
 Center     Atomic      Atomic             Coordinates (Angstroms)
 Number     Number       Type             X           Y           Z
 ---------------------------------------------------------------------
      1         25           0        0.000000    0.000000    0.042308
      2          1           0        0.000000    0.000000   -1.057692
 ---------------------------------------------------------------------

 SCF Done:  E(ROHF) =  -104.063177295     A.U. after   29 cycles
 E2 =    -0.6202966631D+00 EUMP2 =    -0.10468347395813D+03
 CCSD(T)
 CCSD(T)= -0.10470232025D+03

 The electronic state is 7-SG.
 Alpha  occ. eigenvalues --   -4.09517  -2.76735  -2.74988  -2.74988  -0.69706
 Alpha  occ. eigenvalues --   -0.63690  -0.63690  -0.63056  -0.63056  -0.40216
 Alpha  occ. eigenvalues --   -0.23088
 Alpha virt. eigenvalues --    0.01297   0.01297   0.02028   0.03370   0.05724
 Alpha virt. eigenvalues --    0.05724   0.08513   0.08513   0.08664   0.08834
 Alpha virt. eigenvalues --    0.08892   0.08892   0.14177   0.22365   0.22365

 Mulliken charges and spin densities:
               1          2
     1  Mn   0.555631   5.948094
     2  H   -0.555631   0.051906
 Sum of Mulliken charges =   0.00000   6.00000

 Dipole moment (field-independent basis, Debye):
    X=              0.0000    Y=              0.0000    Z=             -0.6698  Tot=              0.6698
 Quadrupole moment (field-independent basis, Debye-Ang):
   XX=            -15.8736   YY=            -15.8736   ZZ=            -25.2306
   XY=              0.0000   XZ=              0.0000   YZ=              0.0000

 \\#P ROCCSD(T)=(maxcyc=150, Full, SaveAmplitudes, ReadAmplitudes)/Gen
 83248\CCSD=-104.6841859\CCSD(T)=-104.7023203\RMSD=6.666e-09\PG=C*V [C*
 Normal termination of Gaussian 16 at Sun Feb 25 20:00:17 2018.
