 Gaussian 16, Revision A.03,
 Gaussian 16:  ES64L-G16RevA.03 25-Dec-2016

 ----------------------------------------------------------------------
 #P ROCCSD(T)=(maxcyc=150, Full)/Gen 5d 7f SCF=(maxcycles=300) Integral
 (NoXCTest, DKHSO) MaxDisk=500GB Pop=Regular IOp(5/15=2) Guess=Read
 ----------------------------------------------------------------------

 ---
 ScH
 ---
 Symbolic Z-matrix:
 Charge =  0 Multiplicity = 1

                         Standard orientation:
 ---------------------------------------------------------------------
 Center     Atomic      Atomic             Coordinates (Angstroms)
 Number     Number       Type             X           Y           Z
 ---------------------------------------------------------------------
      1         21           0        0.000000    0.000000    0.081818
      2          1           0        0.000000    0.000000   -1.718182
 ---------------------------------------------------------------------

 SCF Done:  E(ROHF) =  -763.832330440     A.U. after   11 cycles
 E2 =    -0.7535157595D+00 EUMP2 =    -0.76458584619948D+03
 CCSD(T)
 CCSD(T)= -0.76462470984D+03

 The electronic state is 1-SG.
 Alpha  occ. eigenvalues -- -166.92281 -19.37850 -15.80183 -15.80183 -15.79417
 Alpha  occ. eigenvalues --   -2.68798  -1.66322  -1.66322  -1.66275  -0.40587
 Alpha  occ. eigenvalues --   -0.23276
 Alpha virt. eigenvalues --    0.01137   0.01137   0.01607   0.02193   0.03556
 Alpha virt. eigenvalues --    0.03832   0.03832   0.03924   0.03924   0.04511
 Alpha virt. eigenvalues --    0.04511   0.04822   0.08279   0.08279   0.09063

 Mulliken charges and spin densities:
               1          2
     1  Sc   0.351897   0.000000
     2  H   -0.351897   0.000000
 Sum of Mulliken charges =   0.00000   0.00000

 Dipole moment (field-independent basis, Debye):
    X=              0.0000    Y=              0.0000    Z=              1.4176  Tot=              1.4176
 Quadrupole moment (field-independent basis, Debye-Ang):
   XX=            -23.4763   YY=            -23.4763   ZZ=            -27.4268
   XY=              0.0000   XZ=              0.0000   YZ=              0.0000

 P ROCCSD(T)=(maxcyc=150, Full)/Gen 5d 7f SCF=(maxcycles=300) Integral(
 P2-0=-764.5858462\MP4SDQ=-764.6058021\CCSD=-764.6059664\CCSD(T)=-764.6
 Normal termination of Gaussian 16 at Mon Feb 12 20:15:30 2018.
