 Gaussian 16, Revision A.03,
 Gaussian 16:  ES64L-G16RevA.03 25-Dec-2016

 ----------------------------------------------------------------------
 #P ROCCSD(T)=(maxcyc=150, Full)/Gen 5d 7f SCF=(maxcycles=300, NoVarAcc
 , VShift=300) MaxDisk=100GB Pop=Regular Pseudo=Read Guess=Read IOp(5/1
 5=2)
 ----------------------------------------------------------------------

 --
 Sc
 --
 Symbolic Z-matrix:
 Charge =  0 Multiplicity = 2

                         Standard orientation:
 ---------------------------------------------------------------------
 Center     Atomic      Atomic             Coordinates (Angstroms)
 Number     Number       Type             X           Y           Z
 ---------------------------------------------------------------------
      1         21           0        0.000000    0.000000    0.000000
 ---------------------------------------------------------------------

 SCF Done:  E(ROHF) =  -46.1358875760     A.U. after   16 cycles
 E2 =    -0.3845426835D+00 EUMP2 =    -0.46520430259461D+02
 CCSD(T)
 CCSD(T)= -0.46555826161D+02

 Unable to determine electronic state:  an orbital has unidentified symmetry.
 Alpha  occ. eigenvalues --   -2.62039  -1.63447  -1.63447  -1.59596  -0.34682
 Alpha  occ. eigenvalues --   -0.21485
 Alpha virt. eigenvalues --    0.01169   0.01261   0.01261   0.02129   0.02886
 Alpha virt. eigenvalues --    0.02889   0.02889   0.02897   0.02918   0.04295
 Alpha virt. eigenvalues --    0.04416   0.04416   0.08076   0.08196   0.08196

 Mulliken charges and spin densities:
               1          2
     1  Sc  -0.000000   1.000000
 Sum of Mulliken charges =  -0.00000   1.00000

 Dipole moment (field-independent basis, Debye):
    X=              0.0000    Y=              0.0000    Z=              0.0000  Tot=              0.0000
 Quadrupole moment (field-independent basis, Debye-Ang):
   XX=            -23.4024   YY=            -23.4024   ZZ=            -23.1112
   XY=             -0.0000   XZ=              0.0000   YZ=             -0.0000

 1\1\GINC-C455-134\SP\ROCCSD(T)-Full\Gen\Sc1(2)\AANNABE\17-Apr-2018\0\\
 #P ROCCSD(T)=(maxcyc=150, Full)/Gen 5d 7f SCF=(maxcycles=300, NoVarAcc
 , VShift=300) MaxDisk=100GB Pop=Regular Pseudo=Read Guess=Read IOp(5/1
 5=2)\\Sc\\0,2\Sc,0,0.,0.,0.\\Version=ES64L-G16RevA.03\HF=-46.1358876\M
 P2=-46.5204303\MP3=-46.540589\PUHF=-46.1358876\PMP2-0=-46.5204303\MP4S
 DQ=-46.5401483\CCSD=-46.5403921\CCSD(T)=-46.5558262\RMSD=8.989e-09\PG=
 OH [O(Sc1)]\\@

 Normal termination of Gaussian 16 at Tue Apr 17 16:08:35 2018.
