 Gaussian 16, Revision A.03,
 Gaussian 16:  ES64L-G16RevA.03 25-Dec-2016

 ----------------------------------------------------------------------
 #P ROCCSD(T)=(maxcyc=150, Full)/Gen 5d 7f SCF=(maxcycles=300) Integral
 (NoXCTest, DKHSO) MaxDisk=500GB Pop=Regular IOp(5/15=2) Guess=Read
 ----------------------------------------------------------------------

 ---
 CrH
 ---
 Symbolic Z-matrix:
 Charge =  0 Multiplicity = 6

                         Standard orientation:
 ---------------------------------------------------------------------
 Center     Atomic      Atomic             Coordinates (Angstroms)
 Number     Number       Type             X           Y           Z
 ---------------------------------------------------------------------
      1         24           0        0.000000    0.000000    0.088000
      2          1           0        0.000000    0.000000   -2.112000
 ---------------------------------------------------------------------

 SCF Done:  E(ROHF) =  -1050.18171822     A.U. after   22 cycles
 E2 =    -0.9353115200D+00 EUMP2 =    -0.10511170297364D+04
 CCSD(T)
 CCSD(T)= -0.10511247592D+04

 The electronic state is 6-SG.
 Alpha  occ. eigenvalues -- -222.25131 -26.84460 -22.47850 -22.47850 -22.47850
 Alpha  occ. eigenvalues --   -3.71629  -2.47040  -2.47040  -2.42636  -0.59366
 Alpha  occ. eigenvalues --   -0.59366  -0.55734  -0.55734  -0.36286  -0.27179
 Alpha virt. eigenvalues --    0.00762   0.00762   0.01722   0.02544   0.04402
 Alpha virt. eigenvalues --    0.04563   0.04563   0.05214   0.05214   0.05655
 Alpha virt. eigenvalues --    0.05655   0.06472   0.09762   0.11956   0.15104

 Mulliken charges and spin densities:
               1          2
     1  Cr   0.367052   4.969815
     2  H   -0.367052   0.030185
 Sum of Mulliken charges =  -0.00000   5.00000

 Dipole moment (field-independent basis, Debye):
    X=             -0.0000    Y=              0.0000    Z=              3.5953  Tot=              3.5953
 Quadrupole moment (field-independent basis, Debye-Ang):
   XX=            -17.7276   YY=            -17.7276   ZZ=            -29.2198
   XY=              0.0000   XZ=             -0.0000   YZ=              0.0000

 \\#P ROCCSD(T)=(maxcyc=150, Full)/Gen 5d 7f SCF=(maxcycles=300) Integr
 Normal termination of Gaussian 16 at Tue Feb 13 20:14:18 2018.
