 Gaussian 16, Revision A.03,
 Gaussian 16:  ES64L-G16RevA.03 25-Dec-2016

 ----------------------------------------------------------------------
 #P ROCCSD(T)=(maxcyc=150, Full)/Gen 5d 7f SCF=(maxcycles=300) Integral
 (NoXCTest) MaxDisk=500GB Pop=Regular Pseudo=Read Guess=Read
 ----------------------------------------------------------------------

 ---
 ScH
 ---
 Symbolic Z-matrix:
 Charge =  0 Multiplicity = 1

                         Standard orientation:
 ---------------------------------------------------------------------
 Center     Atomic      Atomic             Coordinates (Angstroms)
 Number     Number       Type             X           Y           Z
 ---------------------------------------------------------------------
      1         21           0        0.000000    0.000000    0.063636
      2          1           0        0.000000    0.000000   -1.336364
 ---------------------------------------------------------------------

 SCF Done:  E(ROHF) =  -46.6229406906     A.U. after   11 cycles
 E2 =    -0.4295441029D+00 EUMP2 =    -0.47052484793523D+02
 CCSD(T)
 CCSD(T)= -0.47092013180D+02

 The electronic state is 1-SG.
 Alpha  occ. eigenvalues --   -2.64097  -1.63697  -1.61941  -1.61941  -0.45271
 Alpha  occ. eigenvalues --   -0.21943
 Alpha virt. eigenvalues --    0.01265   0.01265   0.01518   0.01914   0.02889
 Alpha virt. eigenvalues --    0.02889   0.02895   0.02895   0.02908   0.04349
 Alpha virt. eigenvalues --    0.04349   0.04436   0.07863   0.08060   0.08060

 Mulliken charges and spin densities:
               1          2
     1  Sc   0.283533   0.000000
     2  H   -0.283533   0.000000
 Sum of Mulliken charges =  -0.00000   0.00000

 Dipole moment (field-independent basis, Debye):
    X=              0.0000    Y=              0.0000    Z=              0.6859  Tot=              0.6859
 Quadrupole moment (field-independent basis, Debye-Ang):
   XX=            -23.4672   YY=            -23.4672   ZZ=            -23.8265
   XY=              0.0000   XZ=              0.0000   YZ=              0.0000

 P ROCCSD(T)=(maxcyc=150, Full)/Gen 5d 7f SCF=(maxcycles=300) Integral(
 524848\MP4SDQ=-47.0737648\CCSD=-47.0732667\CCSD(T)=-47.0920132\RMSD=4.
 Normal termination of Gaussian 16 at Mon Feb 12 22:04:30 2018.
