 Gaussian 16, Revision A.03,
 Gaussian 16:  ES64L-G16RevA.03 25-Dec-2016

 ----------------------------------------------------------------------
 #P ROCCSD(T)=(MaxCyc=150, Full)/Gen SCF=(maxcycle=400) Pseudo=Read Int
 egral(NoXCTest) Pop=Regular MaxDisk=500GB Guess=Read IOp(5/15=2)
 ----------------------------------------------------------------------

 ---
 CoO
 ---
 Symbolic Z-matrix:
 Charge =  0 Multiplicity = 4

                         Standard orientation:
 ---------------------------------------------------------------------
 Center     Atomic      Atomic             Coordinates (Angstroms)
 Number     Number       Type             X           Y           Z
 ---------------------------------------------------------------------
      1         27           0        0.000000    0.000000    0.274286
      2          8           0        0.000000    0.000000   -0.925714
 ---------------------------------------------------------------------

 SCF Done:  E(ROHF) =  -160.029314150     A.U. after   21 cycles
 E2 =    -0.1194632332D+01 EUMP2 =    -0.16122394648219D+03
 CCSD(T)
 CCSD(T)= -0.16119968160D+03

 Unable to determine electronic state:  partially filled degenerate orbitals.
 Alpha  occ. eigenvalues --   -4.90777  -3.39311  -3.32598  -3.32598  -1.38881
 Alpha  occ. eigenvalues --   -0.91840  -0.91840  -0.78333  -0.76679  -0.73348
 Alpha  occ. eigenvalues --   -0.50527  -0.50527  -0.32455
 Alpha virt. eigenvalues --    0.01444   0.02715   0.02715   0.03045   0.05493
 Alpha virt. eigenvalues --    0.07153   0.07153   0.07404   0.07412   0.07598
 Alpha virt. eigenvalues --    0.09180   0.09180   0.11193   0.17230   0.21416

 Mulliken charges and spin densities:
               1          2
     1  Co   0.572135   2.605628
     2  O   -0.572135   0.394372
 Sum of Mulliken charges =  -0.00000   3.00000

 Dipole moment (field-independent basis, Debye):
    X=              0.0000    Y=              0.0000    Z=              1.8107  Tot=              1.8107
 Quadrupole moment (field-independent basis, Debye-Ang):
   XX=            -20.3153   YY=            -20.3153   ZZ=            -20.3390
   XY=              0.0000   XZ=              0.0000   YZ=              0.0000

 \\#P ROCCSD(T)=(MaxCyc=150, Full)/Gen SCF=(maxcycle=400) Pseudo=Read I
 .2239465\MP4SDQ=-161.1765338\CCSD=-161.1493514\CCSD(T)=-161.1996816\RM
 Normal termination of Gaussian 16 at Sat Mar 31 16:33:52 2018.
