 Gaussian 16, Revision A.03,
 Gaussian 16:  ES64L-G16RevA.03 25-Dec-2016

 ----------------------------------------------------------------------
 #P ROCCSD(T)=(MaxCyc=150, Full)/Gen SCF=(maxcycle=400) Pseudo=Read Int
 egral(NoXCTest) Pop=Regular MaxDisk=500GB Guess=Read IOp(5/15=2)
 ----------------------------------------------------------------------

 ---
 CoO
 ---
 Symbolic Z-matrix:
 Charge =  0 Multiplicity = 4

                         Standard orientation:
 ---------------------------------------------------------------------
 Center     Atomic      Atomic             Coordinates (Angstroms)
 Number     Number       Type             X           Y           Z
 ---------------------------------------------------------------------
      1         27           0        0.000000    0.000000    0.274286
      2          8           0        0.000000    0.000000   -0.925714
 ---------------------------------------------------------------------

 SCF Done:  E(ROHF) =  -160.025322756     A.U. after   24 cycles
 E2 =    -0.1141845975D+01 EUMP2 =    -0.16116716873179D+03
 CCSD(T)
 CCSD(T)= -0.16114508135D+03

 Unable to determine electronic state:  partially filled degenerate orbitals.
 Alpha  occ. eigenvalues --   -4.90790  -3.39346  -3.32609  -3.32609  -1.38931
 Alpha  occ. eigenvalues --   -0.91827  -0.91827  -0.78331  -0.76684  -0.73342
 Alpha  occ. eigenvalues --   -0.50512  -0.50512  -0.32472
 Alpha virt. eigenvalues --    0.01510   0.02983   0.02983   0.03322   0.05903
 Alpha virt. eigenvalues --    0.09564   0.09564   0.11206   0.11287   0.11287
 Alpha virt. eigenvalues --    0.11322   0.11347   0.12631   0.18388   0.25954

 Mulliken charges and spin densities:
               1          2
     1  Co   0.582986   2.596837
     2  O   -0.582986   0.403163
 Sum of Mulliken charges =  -0.00000   3.00000

 Dipole moment (field-independent basis, Debye):
    X=              0.0000    Y=              0.0000    Z=              1.8224  Tot=              1.8224
 Quadrupole moment (field-independent basis, Debye-Ang):
   XX=            -20.3130   YY=            -20.3130   ZZ=            -20.3521
   XY=              0.0000   XZ=              0.0000   YZ=              0.0000

 \\#P ROCCSD(T)=(MaxCyc=150, Full)/Gen SCF=(maxcycle=400) Pseudo=Read I
 .1671687\MP4SDQ=-161.1248472\CCSD=-161.0970087\CCSD(T)=-161.1450814\RM
 Normal termination of Gaussian 16 at Sat Mar 31 14:29:32 2018.
