 Gaussian 16, Revision A.03,
 Gaussian 16:  ES64L-G16RevA.03 25-Dec-2016

 ----------------------------------------------------------------------
 #P ROCCSD(T)=(maxcyc=150, Full, SaveAmplitudes, ReadAmplitudes)/Gen 5d
  7f SCF=(maxcycles=300) Integral(NoXCTest, DKHSO) MaxDisk=500GB Pop=Re
 gular Guess=Read IOp(5/15=2)
 ----------------------------------------------------------------------

 ---
 TiO
 ---
 Symbolic Z-matrix:
 Charge =  0 Multiplicity = 3

                         Standard orientation:
 ---------------------------------------------------------------------
 Center     Atomic      Atomic             Coordinates (Angstroms)
 Number     Number       Type             X           Y           Z
 ---------------------------------------------------------------------
      1         22           0        0.000000    0.000000    0.373333
      2          8           0        0.000000    0.000000   -1.026667
 ---------------------------------------------------------------------

 SCF Done:  E(ROHF) =  -927.659534490     A.U. after   21 cycles
 E2 =    -0.1153411404D+01 EUMP2 =    -0.92881294589398D+03
 CCSD(T)
 CCSD(T)= -0.92882951412D+03

 Unable to determine electronic state:  an orbital has unidentified symmetry.
 Alpha  occ. eigenvalues -- -184.37479 -21.63629 -20.53891 -17.80296 -17.80296
 Alpha  occ. eigenvalues --  -17.80220  -2.93357  -1.90912  -1.83599  -1.83599
 Alpha  occ. eigenvalues --   -1.15059  -0.53500  -0.53500  -0.50373  -0.38617
 Alpha  occ. eigenvalues --   -0.23355
 Alpha virt. eigenvalues --    0.01011   0.01011   0.02195   0.02533   0.04641
 Alpha virt. eigenvalues --    0.04641   0.05001   0.05112   0.05284   0.05822
 Alpha virt. eigenvalues --    0.05822   0.08113   0.11540   0.12956   0.14397

 Mulliken charges and spin densities:
               1          2
     1  Ti   0.807064   2.025692
     2  O   -0.807064  -0.025692
 Sum of Mulliken charges =  -0.00000   2.00000

 Dipole moment (field-independent basis, Debye):
    X=              0.0000    Y=              0.0000    Z=              1.9383  Tot=              1.9383
 Quadrupole moment (field-independent basis, Debye-Ang):
   XX=            -22.1215   YY=            -22.1215   ZZ=            -28.1666
   XY=              0.0000   XZ=              0.0000   YZ=              0.0000

 \\#P ROCCSD(T)=(maxcyc=150, Full, SaveAmplitudes, ReadAmplitudes)/Gen
 28.7908179\CCSD(T)=-928.8295141\RMSD=5.229e-09\PG=C*V [C*(O1Ti1)]\\@
 Normal termination of Gaussian 16 at Tue Mar  6 23:47:58 2018.
