 Gaussian 16, Revision A.03,
 Gaussian 16:  ES64L-G16RevA.03 25-Dec-2016

 ----------------------------------------------------------------------
 #P ROCCSD(T)=(maxcyc=150, Full, SaveAmplitudes, ReadAmplitudes)/Gen 5d
  7f SCF=(maxcycles=300) Integral(NoXCTest) MaxDisk=500GB Pop=Regular P
 seudo=Read Guess=Read
 ----------------------------------------------------------------------

 ---
 ScO
 ---
 Symbolic Z-matrix:
 Charge =  0 Multiplicity = 2

                         Standard orientation:
 ---------------------------------------------------------------------
 Center     Atomic      Atomic             Coordinates (Angstroms)
 Number     Number       Type             X           Y           Z
 ---------------------------------------------------------------------
      1         21           0        0.000000    0.000000    0.496552
      2          8           0        0.000000    0.000000   -1.303448
 ---------------------------------------------------------------------

 SCF Done:  E(ROHF) =  -62.0630904293     A.U. after   17 cycles
 E2 =    -0.7228956462D+00 EUMP2 =    -0.62785986075449D+02
 CCSD(T)
 CCSD(T)= -0.62813831310D+02

 The electronic state is 2-SG.
 Alpha  occ. eigenvalues --   -2.74522  -1.66611  -1.65571  -1.65571  -1.10184
 Alpha  occ. eigenvalues --   -0.41444  -0.38477  -0.38477  -0.26452
 Alpha virt. eigenvalues --   -0.00468  -0.00468   0.01082   0.01937   0.02659
 Alpha virt. eigenvalues --    0.02659   0.02777   0.02777   0.03223   0.03223
 Alpha virt. eigenvalues --    0.03604   0.04092   0.06130   0.06130   0.09118

 Mulliken charges and spin densities:
               1          2
     1  Sc   1.272905   0.986961
     2  O   -1.272905   0.013039
 Sum of Mulliken charges =  -0.00000   1.00000

 Dipole moment (field-independent basis, Debye):
    X=              0.0000    Y=              0.0000    Z=              5.7788  Tot=              5.7788
 Quadrupole moment (field-independent basis, Debye-Ang):
   XX=            -21.8554   YY=            -21.8554   ZZ=            -33.4521
   XY=              0.0000   XZ=              0.0000   YZ=              0.0000

 \\#P ROCCSD(T)=(maxcyc=150, Full, SaveAmplitudes, ReadAmplitudes)/Gen
 630904\PMP2-0=-62.7859861\CCSD=-62.7684222\CCSD(T)=-62.8138313\RMSD=3.
 Normal termination of Gaussian 16 at Wed Feb 28 20:14:34 2018.
