 Gaussian 16, Revision A.03,
 Gaussian 16:  ES64L-G16RevA.03 25-Dec-2016

 ----------------------------------------------------------------------
 #P ROCCSD(T)=(MaxCyc=150, Full)/Gen SCF=(maxcycle=400, vshift=200) Pse
 udo=Read Integral(NoXCTest) Pop=Regular MaxDisk=500GB Guess=Read IOp(5
 /15=2)
 ----------------------------------------------------------------------

 ---
 CoH
 ---
 Symbolic Z-matrix:
 Charge =  0 Multiplicity = 3

                         Standard orientation:
 ---------------------------------------------------------------------
 Center     Atomic      Atomic             Coordinates (Angstroms)
 Number     Number       Type             X           Y           Z
 ---------------------------------------------------------------------
      1         27           0        0.000000    0.000000    0.053571
      2          1           0        0.000000    0.000000   -1.446429
 ---------------------------------------------------------------------

 SCF Done:  E(ROHF) =  -145.415687983     A.U. after  105 cycles
 E2 =    -0.8764274668D+00 EUMP2 =    -0.14629211544937D+03
 CCSD(T)
 CCSD(T)= -0.14627575951D+03

 Unable to determine electronic state:  partially filled degenerate orbitals.
 Alpha  occ. eigenvalues --   -4.40024  -2.92143  -2.92028  -2.92028  -0.48968
 Alpha  occ. eigenvalues --   -0.48652  -0.43830  -0.43645  -0.43645  -0.32776
 Alpha virt. eigenvalues --    0.00043   0.02675   0.02675   0.03324   0.05009
 Alpha virt. eigenvalues --    0.09386   0.09386   0.10216   0.11325   0.11369
 Alpha virt. eigenvalues --    0.11518   0.11553   0.11553   0.18926   0.25320

 Mulliken charges and spin densities:
               1          2
     1  Co   0.366134   1.979573
     2  H   -0.366134   0.020427
 Sum of Mulliken charges =  -0.00000   2.00000

 Dipole moment (field-independent basis, Debye):
    X=              0.0000    Y=              0.0000    Z=              4.3201  Tot=              4.3201
 Quadrupole moment (field-independent basis, Debye-Ang):
   XX=            -13.8145   YY=            -13.8145   ZZ=            -17.5911
   XY=              0.0000   XZ=              0.0000   YZ=              0.0000

 \\#P ROCCSD(T)=(MaxCyc=150, Full)/Gen SCF=(maxcycle=400, vshift=200) P
 MP2-0=-146.2921154\MP4SDQ=-146.2694036\CCSD=-146.2446128\CCSD(T)=-146.
 Normal termination of Gaussian 16 at Sat Apr 21 22:52:05 2018.
