 Gaussian 16, Revision A.03,
 Gaussian 16:  ES64L-G16RevA.03 25-Dec-2016

 ----------------------------------------------------------------------
 #P ROCCSD(T)=(MaxCyc=150, Full)/Gen SCF=(maxcycle=400, vshift=200) Pse
 udo=Read Integral(NoXCTest) Pop=Regular MaxDisk=500GB Guess=Read IOp(5
 /15=2)
 ----------------------------------------------------------------------

 ---
 CoH
 ---
 Symbolic Z-matrix:
 Charge =  0 Multiplicity = 3

                         Standard orientation:
 ---------------------------------------------------------------------
 Center     Atomic      Atomic             Coordinates (Angstroms)
 Number     Number       Type             X           Y           Z
 ---------------------------------------------------------------------
      1         27           0        0.000000    0.000000    0.053571
      2          1           0        0.000000    0.000000   -1.446429
 ---------------------------------------------------------------------

 SCF Done:  E(ROHF) =  -145.417332068     A.U. after   31 cycles
 E2 =    -0.9175884626D+00 EUMP2 =    -0.14633492053095D+03
 CCSD(T)
 CCSD(T)= -0.14631687092D+03

 Unable to determine electronic state:  partially filled degenerate orbitals.
 Alpha  occ. eigenvalues --   -4.39984  -2.92127  -2.92010  -2.92010  -0.48978
 Alpha  occ. eigenvalues --   -0.48658  -0.43839  -0.43657  -0.43657  -0.32777
 Alpha virt. eigenvalues --    0.00017   0.02426   0.02426   0.03017   0.04740
 Alpha virt. eigenvalues --    0.06990   0.07341   0.07355   0.07559   0.07559
 Alpha virt. eigenvalues --    0.08587   0.08587   0.10033   0.18546   0.20070

 Mulliken charges and spin densities:
               1          2
     1  Co   0.365674   1.992481
     2  H   -0.365674   0.007519
 Sum of Mulliken charges =  -0.00000   2.00000

 Dipole moment (field-independent basis, Debye):
    X=              0.0000    Y=              0.0000    Z=              4.3166  Tot=              4.3166
 Quadrupole moment (field-independent basis, Debye-Ang):
   XX=            -13.8007   YY=            -13.8007   ZZ=            -17.5939
   XY=              0.0000   XZ=              0.0000   YZ=              0.0000

 \\#P ROCCSD(T)=(MaxCyc=150, Full)/Gen SCF=(maxcycle=400, vshift=200) P
 \PMP2-0=-146.3349205\MP4SDQ=-146.308436\CCSD=-146.2841492\CCSD(T)=-146
 Normal termination of Gaussian 16 at Sat Apr 21 23:36:38 2018.
