 Gaussian 16, Revision A.03,
 Gaussian 16:  ES64L-G16RevA.03 25-Dec-2016

 ----------------------------------------------------------------------
 #P ROCCSD(T)=(MaxCyc=150, Full)/Gen SCF=(maxcycle=400, vshift=200) Pse
 udo=Read Integral(NoXCTest) Pop=Regular MaxDisk=500GB Guess=Read IOp(5
 /15=2)
 ----------------------------------------------------------------------

 ---
 CoH
 ---
 Symbolic Z-matrix:
 Charge =  0 Multiplicity = 3

                         Standard orientation:
 ---------------------------------------------------------------------
 Center     Atomic      Atomic             Coordinates (Angstroms)
 Number     Number       Type             X           Y           Z
 ---------------------------------------------------------------------
      1         27           0        0.000000    0.000000    0.053571
      2          1           0        0.000000    0.000000   -1.446429
 ---------------------------------------------------------------------

 SCF Done:  E(ROHF) =  -145.417818263     A.U. after   29 cycles
 E2 =    -0.9373753326D+00 EUMP2 =    -0.14635519359522D+03
 CCSD(T)
 CCSD(T)= -0.14633486955D+03

 Unable to determine electronic state:  partially filled degenerate orbitals.
 Alpha  occ. eigenvalues --   -4.39999  -2.92125  -2.92008  -2.92008  -0.48976
 Alpha  occ. eigenvalues --   -0.48656  -0.43844  -0.43662  -0.43662  -0.32777
 Alpha virt. eigenvalues --   -0.00035   0.02347   0.02347   0.02707   0.04091
 Alpha virt. eigenvalues --    0.06429   0.06634   0.06645   0.06884   0.06884
 Alpha virt. eigenvalues --    0.08193   0.08193   0.08748   0.14590   0.18500

 Mulliken charges and spin densities:
               1          2
     1  Co   0.339615   1.987128
     2  H   -0.339615   0.012872
 Sum of Mulliken charges =  -0.00000   2.00000

 Dipole moment (field-independent basis, Debye):
    X=              0.0000    Y=              0.0000    Z=              4.3159  Tot=              4.3159
 Quadrupole moment (field-independent basis, Debye-Ang):
   XX=            -13.8001   YY=            -13.8000   ZZ=            -17.5941
   XY=              0.0000   XZ=              0.0000   YZ=              0.0000

 \\#P ROCCSD(T)=(MaxCyc=150, Full)/Gen SCF=(maxcycle=400, vshift=200) P
 \PMP2-0=-146.3551936\MP4SDQ=-146.3255082\CCSD=-146.3015598\CCSD(T)=-14
 Normal termination of Gaussian 16 at Sat Apr 28 21:10:00 2018.
