 Gaussian 16, Revision A.03,
 Gaussian 16:  ES64L-G16RevA.03 25-Dec-2016

 ----------------------------------------------------------------------
 #P ROCCSD(T)=(maxcyc=150, Full)/Gen 5d 7f SCF=(maxcycles=300) Integral
 (NoXCTest) MaxDisk=500GB Pop=Regular Pseudo=Read
 ----------------------------------------------------------------------

 ---
 ScH
 ---
 Symbolic Z-matrix:
 Charge =  0 Multiplicity = 1

                         Standard orientation:
 ---------------------------------------------------------------------
 Center     Atomic      Atomic             Coordinates (Angstroms)
 Number     Number       Type             X           Y           Z
 ---------------------------------------------------------------------
      1         21           0        0.000000    0.000000    0.095455
      2          1           0        0.000000    0.000000   -2.004545
 ---------------------------------------------------------------------

 SCF Done:  E(ROHF) =  -46.6479272585     A.U. after   12 cycles
 E2 =    -0.4043347532D+00 EUMP2 =    -0.47052262011654D+02
 CCSD(T)
 CCSD(T)= -0.47101147249D+02

 The electronic state is 1-SG.
 Alpha  occ. eigenvalues --   -2.71380  -1.68959  -1.68959  -1.68750  -0.36809
 Alpha  occ. eigenvalues --   -0.24280
 Alpha virt. eigenvalues --    0.00946   0.00946   0.01181   0.02300   0.03590
 Alpha virt. eigenvalues --    0.03750   0.03750   0.03944   0.03944   0.04187
 Alpha virt. eigenvalues --    0.04268   0.04268   0.07137   0.07137   0.08255

 Mulliken charges and spin densities:
               1          2
     1  Sc   0.308619   0.000000
     2  H   -0.308619   0.000000
 Sum of Mulliken charges =  -0.00000   0.00000

 Dipole moment (field-independent basis, Debye):
    X=              0.0000    Y=              0.0000    Z=              2.5841  Tot=              2.5841
 Quadrupole moment (field-independent basis, Debye-Ang):
   XX=            -22.8913   YY=            -22.8913   ZZ=            -29.1811
   XY=              0.0000   XZ=              0.0000   YZ=              0.0000

 P ROCCSD(T)=(maxcyc=150, Full)/Gen 5d 7f SCF=(maxcycles=300) Integral(
 =-47.0814289\CCSD=-47.0817812\CCSD(T)=-47.1011472\RMSD=9.410e-09\PG=C*
 Normal termination of Gaussian 16 at Tue Feb 13 09:35:00 2018.
