 Gaussian 16, Revision A.03,
 Gaussian 16:  ES64L-G16RevA.03 25-Dec-2016

 ----------------------------------------------------------------------
 #P ROCCSD(T)=(maxcyc=150, Full)/Gen 5d 7f SCF=(maxcycles=300) Integral
 (NoXCTest) MaxDisk=500GB Pop=Regular Pseudo=Read IOp(5/15=2) Guess=Rea
 d
 ----------------------------------------------------------------------

 ---
 ScH
 ---
 Symbolic Z-matrix:
 Charge =  0 Multiplicity = 1

                         Standard orientation:
 ---------------------------------------------------------------------
 Center     Atomic      Atomic             Coordinates (Angstroms)
 Number     Number       Type             X           Y           Z
 ---------------------------------------------------------------------
      1         21           0        0.000000    0.000000    0.100000
      2          1           0        0.000000    0.000000   -2.100000
 ---------------------------------------------------------------------

 SCF Done:  E(ROHF) =  -46.7760281076     A.U. after   10 cycles
 E2 =    -0.4172520887D+00 EUMP2 =    -0.47193280196293D+02
 CCSD(T)
 CCSD(T)= -0.47241408881D+02

 The electronic state is 1-SG.
 Alpha  occ. eigenvalues --   -2.76477  -1.69698  -1.69698  -1.69492  -0.35745
 Alpha  occ. eigenvalues --   -0.24754
 Alpha virt. eigenvalues --    0.00850   0.00850   0.01006   0.02079   0.02794
 Alpha virt. eigenvalues --    0.02794   0.02960   0.02960   0.03052   0.03500
 Alpha virt. eigenvalues --    0.03755   0.03755   0.06176   0.06176   0.07182

 Mulliken charges and spin densities:
               1          2
     1  Sc   0.261943   0.000000
     2  H   -0.261943   0.000000
 Sum of Mulliken charges =  -0.00000   0.00000

 Dipole moment (field-independent basis, Debye):
    X=              0.0000    Y=              0.0000    Z=              2.9710  Tot=              2.9710
 Quadrupole moment (field-independent basis, Debye-Ang):
   XX=            -22.7221   YY=            -22.7221   ZZ=            -30.0538
   XY=              0.0000   XZ=              0.0000   YZ=              0.0000

 P ROCCSD(T)=(maxcyc=150, Full)/Gen 5d 7f SCF=(maxcycles=300) Integral(
 PMP2-0=-47.1932802\MP4SDQ=-47.2198056\CCSD=-47.2207395\CCSD(T)=-47.241
 Normal termination of Gaussian 16 at Wed Feb 14 12:24:46 2018.
