 Gaussian 16, Revision A.03,
 Gaussian 16:  ES64L-G16RevA.03 25-Dec-2016

 ----------------------------------------------------------------------
 #P ROCCSD(T)=(maxcyc=150, Full, SaveAmplitudes, ReadAmplitudes)/Gen 5d
  7f SCF=(maxcycles=300, VShift=400) Integral(NoXCTest) MaxDisk=500GB P
 op=Full Pseudo=Read Guess=Read
 ----------------------------------------------------------------------

 ---
 MnH
 ---
 Symbolic Z-matrix:
 Charge =  0 Multiplicity = 7

                         Standard orientation:
 ---------------------------------------------------------------------
 Center     Atomic      Atomic             Coordinates (Angstroms)
 Number     Number       Type             X           Y           Z
 ---------------------------------------------------------------------
      1         25           0        0.000000    0.000000    0.057692
      2          1           0        0.000000    0.000000   -1.442308
 ---------------------------------------------------------------------

 SCF Done:  E(ROHF) =  -103.777428063     A.U. after   23 cycles
 E2 =    -0.6082987458D+00 EUMP2 =    -0.10438572680873D+03
 CCSD(T)
 CCSD(T)= -0.10440611053D+03

 The electronic state is 7-SG.
 Alpha  occ. eigenvalues --   -4.14045  -2.76213  -2.76189  -2.76189  -0.64817
 Alpha  occ. eigenvalues --   -0.63944  -0.63944  -0.63378  -0.63378  -0.41822
 Alpha  occ. eigenvalues --   -0.25291
 Alpha virt. eigenvalues --    0.01287   0.01287   0.02067   0.03016   0.05146
 Alpha virt. eigenvalues --    0.05146   0.05679   0.05824   0.05824   0.06192
 Alpha virt. eigenvalues --    0.06192   0.08695   0.13825   0.14479   0.18024

 Mulliken charges and spin densities:
               1          2
     1  Mn   0.373938   5.939069
     2  H   -0.373938   0.060931
 Sum of Mulliken charges =  -0.00000   6.00000

 Dipole moment (field-independent basis, Debye):
    X=              0.0000    Y=              0.0000    Z=              0.6169  Tot=              0.6169
 Quadrupole moment (field-independent basis, Debye-Ang):
   XX=            -16.0465   YY=            -16.0465   ZZ=            -25.6923
   XY=              0.0000   XZ=              0.0000   YZ=              0.0000

 \\#P ROCCSD(T)=(maxcyc=150, Full, SaveAmplitudes, ReadAmplitudes)/Gen
 \PUHF=-103.7774281\PMP2-0=-104.3857268\CCSD=-104.3890523\CCSD(T)=-104.
 Normal termination of Gaussian 16 at Thu Apr 19 09:49:20 2018.
