 Gaussian 16, Revision A.03,
 Gaussian 16:  ES64L-G16RevA.03 25-Dec-2016

 ----------------------------------------------------------------------
 #P ROCCSD(T)=(maxcyc=150, FrzINGC)/Gen 5d 7f SCF=(maxcycles=300) Integ
 ral(NoXCTest, DKHSO) MaxDisk=500GB Pop=Regular IOp(5/15=2) Guess=Read
 ----------------------------------------------------------------------

 ---
 ScH
 ---
 Symbolic Z-matrix:
 Charge =  0 Multiplicity = 1

                         Standard orientation:
 ---------------------------------------------------------------------
 Center     Atomic      Atomic             Coordinates (Angstroms)
 Number     Number       Type             X           Y           Z
 ---------------------------------------------------------------------
      1         21           0        0.000000    0.000000    0.077273
      2          1           0        0.000000    0.000000   -1.622727
 ---------------------------------------------------------------------

 SCF Done:  E(ROHF) =  -763.831139780     A.U. after   11 cycles
 E2 =    -0.3813225978D+00 EUMP2 =    -0.76421246237730D+03
 CCSD(T)
 CCSD(T)= -0.76425593948D+03

 The electronic state is 1-SG.
 Alpha  occ. eigenvalues -- -166.91055 -19.36542 -15.78877 -15.78877 -15.78129
 Alpha  occ. eigenvalues --   -2.67730  -1.65453  -1.65306  -1.65306  -0.41833
 Alpha  occ. eigenvalues --   -0.22935
 Alpha virt. eigenvalues --    0.01191   0.01191   0.01665   0.02168   0.03541
 Alpha virt. eigenvalues --    0.03856   0.03856   0.03920   0.03920   0.04591
 Alpha virt. eigenvalues --    0.04591   0.04947   0.08693   0.08693   0.09357

 Mulliken charges and spin densities:
               1          2
     1  Sc   0.371874   0.000000
     2  H   -0.371874   0.000000
 Sum of Mulliken charges =   0.00000   0.00000

 Dipole moment (field-independent basis, Debye):
    X=              0.0000    Y=              0.0000    Z=              1.1316  Tot=              1.1316
 Quadrupole moment (field-independent basis, Debye-Ang):
   XX=            -23.5577   YY=            -23.5577   ZZ=            -26.6554
   XY=              0.0000   XZ=              0.0000   YZ=              0.0000

  ROCCSD(T)=(maxcyc=150, FrzINGC)/Gen 5d 7f SCF=(maxcycles=300) Integra
 \PMP2-0=-764.2124624\MP4SDQ=-764.2392909\CCSD=-764.2395329\CCSD(T)=-76
 Normal termination of Gaussian 16 at Tue Feb 13 18:39:02 2018.
