 Gaussian 16, Revision A.03,
 Gaussian 16:  ES64L-G16RevA.03 25-Dec-2016

 ----------------------------------------------------------------------
 #P ROCCSD(T)=(maxcyc=150, Full, SaveAmplitudes, ReadAmplitudes)/Gen 5d
  7f SCF=(maxcycles=300) Integral(NoXCTest) MaxDisk=500GB Pop=Regular P
 seudo=Read Guess=Read
 ----------------------------------------------------------------------

 ---
 TiO
 ---
 Symbolic Z-matrix:
 Charge =  0 Multiplicity = 3

                         Standard orientation:
 ---------------------------------------------------------------------
 Center     Atomic      Atomic             Coordinates (Angstroms)
 Number     Number       Type             X           Y           Z
 ---------------------------------------------------------------------
      1         22           0        0.000000    0.000000    0.320000
      2          8           0        0.000000    0.000000   -0.880000
 ---------------------------------------------------------------------

 SCF Done:  E(ROHF) =  -73.1250798533     A.U. after   20 cycles
 E2 =    -0.7561478484D+00 EUMP2 =    -0.73881227701749D+02
 CCSD(T)
 CCSD(T)= -0.73905035080D+02

 Unable to determine electronic state:  an orbital has unidentified symmetry.
 Alpha  occ. eigenvalues --   -2.95327  -2.01644  -1.80752  -1.80752  -1.12132
 Alpha  occ. eigenvalues --   -0.65740  -0.65740  -0.54575  -0.32910  -0.19934
 Alpha virt. eigenvalues --    0.01203   0.01203   0.01875   0.02598   0.03720
 Alpha virt. eigenvalues --    0.03720   0.03783   0.03825   0.03880   0.04789
 Alpha virt. eigenvalues --    0.04789   0.07231   0.10426   0.10864   0.11074

 Mulliken charges and spin densities:
               1          2
     1  Ti   0.734846   2.005772
     2  O   -0.734846  -0.005772
 Sum of Mulliken charges =  -0.00000   2.00000

 Dipole moment (field-independent basis, Debye):
    X=              0.0000    Y=              0.0000    Z=             -0.7414  Tot=              0.7414
 Quadrupole moment (field-independent basis, Debye-Ang):
   XX=            -22.5562   YY=            -22.5562   ZZ=            -26.5398
   XY=              0.0000   XZ=              0.0000   YZ=              0.0000

 \\#P ROCCSD(T)=(maxcyc=150, Full, SaveAmplitudes, ReadAmplitudes)/Gen
 -0=-73.8812277\CCSD=-73.8720542\CCSD(T)=-73.9050351\RMSD=1.292e-09\PG=
 Normal termination of Gaussian 16 at Fri Mar  9 16:54:19 2018.
