 Gaussian 16, Revision A.03,
 Gaussian 16:  ES64L-G16RevA.03 25-Dec-2016

 ----------------------------------------------------------------------
 #P ROCCSD(T)=(MaxCyc=150, Full)/Gen SCF=(maxcycle=400, vshift=200) Pse
 udo=Read Integral(NoXCTest) Pop=Regular MaxDisk=500GB Guess=Read IOp(5
 /15=2)
 ----------------------------------------------------------------------

 ---
 ZnH
 ---
 Symbolic Z-matrix:
 Charge =  0 Multiplicity = 2

                         Standard orientation:
 ---------------------------------------------------------------------
 Center     Atomic      Atomic             Coordinates (Angstroms)
 Number     Number       Type             X           Y           Z
 ---------------------------------------------------------------------
      1         30           0        0.000000    0.000000    0.041935
      2          1           0        0.000000    0.000000   -1.258065
 ---------------------------------------------------------------------

 SCF Done:  E(ROHF) =  -226.124814848     A.U. after   19 cycles
 E2 =    -0.1090604367D+01 EUMP2 =    -0.22721541921502D+03
 CCSD(T)
 CCSD(T)= -0.22716401069D+03

 The electronic state is 2-SG.
 Alpha  occ. eigenvalues --   -5.88821  -4.00633  -4.00287  -4.00287  -0.81679
 Alpha  occ. eigenvalues --   -0.80107  -0.80107  -0.79903  -0.79903  -0.48415
 Alpha  occ. eigenvalues --   -0.26990
 Alpha virt. eigenvalues --    0.02020   0.02020   0.02514   0.03754   0.06803
 Alpha virt. eigenvalues --    0.06803   0.07984   0.14397   0.17721   0.17862
 Alpha virt. eigenvalues --    0.17862   0.18215   0.18215   0.21716   0.23134

 Mulliken charges and spin densities:
               1          2
     1  Zn   0.267026   0.941265
     2  H   -0.267026   0.058735
 Sum of Mulliken charges =  -0.00000   1.00000

 Dipole moment (field-independent basis, Debye):
    X=              0.0000    Y=              0.0000    Z=             -0.0358  Tot=              0.0358
 Quadrupole moment (field-independent basis, Debye-Ang):
   XX=            -14.4299   YY=            -14.4299   ZZ=            -20.5673
   XY=              0.0000   XZ=              0.0000   YZ=              0.0000

 \\#P ROCCSD(T)=(MaxCyc=150, Full)/Gen SCF=(maxcycle=400, vshift=200) P
 CCSD(T)=-227.1640107\RMSD=6.645e-09\PG=C*V [C*(H1Zn1)]\\@
 Normal termination of Gaussian 16 at Sat Apr 21 11:17:42 2018.
