 Gaussian 16, Revision A.03,
 Gaussian 16:  ES64L-G16RevA.03 25-Dec-2016

 ----------------------------------------------------------------------
 #P ROCCSD(T)=(MaxCyc=150, Full)/Gen SCF=(maxcycle=400, vshift=200) Pse
 udo=Read Integral(NoXCTest) Pop=Regular MaxDisk=500GB Guess=Read IOp(5
 /15=2)
 ----------------------------------------------------------------------

 ---
 ZnH
 ---
 Symbolic Z-matrix:
 Charge =  0 Multiplicity = 2

                         Standard orientation:
 ---------------------------------------------------------------------
 Center     Atomic      Atomic             Coordinates (Angstroms)
 Number     Number       Type             X           Y           Z
 ---------------------------------------------------------------------
      1         30           0        0.000000    0.000000    0.041935
      2          1           0        0.000000    0.000000   -1.258065
 ---------------------------------------------------------------------

 SCF Done:  E(ROHF) =  -226.124934332     A.U. after   21 cycles
 E2 =    -0.1117118178D+01 EUMP2 =    -0.22724205250978D+03
 CCSD(T)
 CCSD(T)= -0.22718866947D+03

 The electronic state is 2-SG.
 Alpha  occ. eigenvalues --   -5.88820  -4.00632  -4.00285  -4.00285  -0.81677
 Alpha  occ. eigenvalues --   -0.80106  -0.80106  -0.79903  -0.79903  -0.48416
 Alpha  occ. eigenvalues --   -0.26991
 Alpha virt. eigenvalues --    0.01957   0.01957   0.02186   0.03367   0.06380
 Alpha virt. eigenvalues --    0.06380   0.06925   0.11857   0.14015   0.15333
 Alpha virt. eigenvalues --    0.15333   0.15530   0.15530   0.18980   0.20628

 Mulliken charges and spin densities:
               1          2
     1  Zn   0.283217   0.942357
     2  H   -0.283217   0.057643
 Sum of Mulliken charges =  -0.00000   1.00000

 Dipole moment (field-independent basis, Debye):
    X=              0.0000    Y=              0.0000    Z=             -0.0360  Tot=              0.0360
 Quadrupole moment (field-independent basis, Debye-Ang):
   XX=            -14.4282   YY=            -14.4282   ZZ=            -20.5671
   XY=              0.0000   XZ=              0.0000   YZ=              0.0000

 \\#P ROCCSD(T)=(MaxCyc=150, Full)/Gen SCF=(maxcycle=400, vshift=200) P
 CCSD(T)=-227.1886695\RMSD=2.874e-09\PG=C*V [C*(H1Zn1)]\\@
 Normal termination of Gaussian 16 at Sun Apr 29 00:36:20 2018.
