 Gaussian 16, Revision A.03,
 Gaussian 16:  ES64L-G16RevA.03 25-Dec-2016

 ----------------------------------------------------------------------
 #P ROCCSD(T)=(MaxCyc=150, Full)/Gen SCF=(maxcycle=400, vshift=200) Pse
 udo=Read Integral(NoXCTest) Pop=Regular MaxDisk=500GB Guess=Read IOp(5
 /15=2)
 ----------------------------------------------------------------------

 ---
 ZnH
 ---
 Symbolic Z-matrix:
 Charge =  0 Multiplicity = 2

                         Standard orientation:
 ---------------------------------------------------------------------
 Center     Atomic      Atomic             Coordinates (Angstroms)
 Number     Number       Type             X           Y           Z
 ---------------------------------------------------------------------
      1         30           0        0.000000    0.000000    0.041935
      2          1           0        0.000000    0.000000   -1.258065
 ---------------------------------------------------------------------

 SCF Done:  E(ROHF) =  -226.123786794     A.U. after   32 cycles
 E2 =    -0.1035627226D+01 EUMP2 =    -0.22715941402023D+03
 CCSD(T)
 CCSD(T)= -0.22710888236D+03

 The electronic state is 2-SG.
 Alpha  occ. eigenvalues --   -5.88830  -4.00644  -4.00301  -4.00301  -0.81682
 Alpha  occ. eigenvalues --   -0.80112  -0.80112  -0.79906  -0.79906  -0.48418
 Alpha  occ. eigenvalues --   -0.26990
 Alpha virt. eigenvalues --    0.02147   0.02147   0.02675   0.04099   0.07754
 Alpha virt. eigenvalues --    0.07754   0.08932   0.15938   0.19133   0.24452
 Alpha virt. eigenvalues --    0.24452   0.25140   0.25140   0.26492   0.28735

 Mulliken charges and spin densities:
               1          2
     1  Zn   0.300129   0.956029
     2  H   -0.300129   0.043971
 Sum of Mulliken charges =  -0.00000   1.00000

 Dipole moment (field-independent basis, Debye):
    X=              0.0000    Y=              0.0000    Z=             -0.0357  Tot=              0.0357
 Quadrupole moment (field-independent basis, Debye-Ang):
   XX=            -14.4348   YY=            -14.4348   ZZ=            -20.5632
   XY=              0.0000   XZ=              0.0000   YZ=              0.0000

 \\#P ROCCSD(T)=(MaxCyc=150, Full)/Gen SCF=(maxcycle=400, vshift=200) P
 Normal termination of Gaussian 16 at Sat Apr 21 10:24:31 2018.
