 Gaussian 16, Revision A.03,
 Gaussian 16:  ES64L-G16RevA.03 25-Dec-2016

 ----------------------------------------------------------------------
 #P ROCCSD(T)=(maxcyc=150, Full, SaveAmplitudes, ReadAmplitudes)/Gen 5d
  7f SCF=(maxcycles=300) Integral(NoXCTest) MaxDisk=500GB Pop=Regular P
 seudo=Read Guess=Read IOp(5/15=2)
 ----------------------------------------------------------------------

 ---
 CrO
 ---
 Symbolic Z-matrix:
 Charge =  0 Multiplicity = 5

                         Standard orientation:
 ---------------------------------------------------------------------
 Center     Atomic      Atomic             Coordinates (Angstroms)
 Number     Number       Type             X           Y           Z
 ---------------------------------------------------------------------
      1         24           0        0.000000    0.000000    0.475000
      2          8           0        0.000000    0.000000   -1.425000
 ---------------------------------------------------------------------

 SCF Done:  E(ROHF) =  -101.816310918     A.U. after   51 cycles
 E2 =    -0.8450566703D+00 EUMP2 =    -0.10266136758791D+03
 CCSD(T)
 CCSD(T)= -0.10271865594D+03

 Unable to determine electronic state:  an orbital has unidentified symmetry.
 Alpha  occ. eigenvalues --   -3.78609  -2.53690  -2.48639  -2.47868  -1.07737
 Alpha  occ. eigenvalues --   -0.59178  -0.56882  -0.56720  -0.54039  -0.33254
 Alpha  occ. eigenvalues --   -0.32749  -0.31900
 Alpha virt. eigenvalues --   -0.05295   0.00513   0.01175   0.01546   0.03697
 Alpha virt. eigenvalues --    0.04772   0.05967   0.07326   0.07330   0.07623
 Alpha virt. eigenvalues --    0.08318   0.08577   0.12649   0.12668   0.15505

 Mulliken charges and spin densities:
               1          2
     1  Cr   1.125738   3.966064
     2  O   -1.125738   0.033936
 Sum of Mulliken charges =  -0.00000   4.00000

 Dipole moment (field-independent basis, Debye):
    X=              0.0000    Y=              0.0000    Z=             10.2052  Tot=             10.2052
 Quadrupole moment (field-independent basis, Debye-Ang):
   XX=            -19.7723   YY=            -19.0839   ZZ=            -24.9944
   XY=              0.0000   XZ=              0.0000   YZ=              0.0000

 \\#P ROCCSD(T)=(maxcyc=150, Full, SaveAmplitudes, ReadAmplitudes)/Gen
 SD=-102.6644626\CCSD(T)=-102.7186559\RMSD=5.283e-09\PG=C*V [C*(O1Cr1)]
 Normal termination of Gaussian 16 at Tue Mar 13 17:36:43 2018.
