 Gaussian 16, Revision A.03,
 Gaussian 16:  ES64L-G16RevA.03 25-Dec-2016

 ----------------------------------------------------------------------
 #P ROCCSD(T)=(maxcyc=150, Full)/Gen 5d 7f SCF=(maxcycles=300) MaxDisk=
 500GB Pop=Regular Pseudo=Read Guess=Read
 ----------------------------------------------------------------------

 -
 O
 -
 Symbolic Z-matrix:
 Charge =  0 Multiplicity = 3

                         Standard orientation:
 ---------------------------------------------------------------------
 Center     Atomic      Atomic             Coordinates (Angstroms)
 Number     Number       Type             X           Y           Z
 ---------------------------------------------------------------------
      1          8           0        0.000000    0.000000    0.000000
 ---------------------------------------------------------------------

 SCF Done:  E(ROHF) =  -15.6897679224     A.U. after    1 cycles
 E2 =    -0.1729253658D+00 EUMP2 =    -0.15862693288220D+02
 CCSD(T)
 CCSD(T)= -0.15880543267D+02

 Unable to determine electronic state:  an orbital has unidentified symmetry.
 Alpha  occ. eigenvalues --   -1.42764  -0.70337  -0.70337  -0.60710
 Alpha virt. eigenvalues --    0.10434   0.10434   0.10972   0.12015   0.39155
 Alpha virt. eigenvalues --    0.39155   0.39978   0.39978   0.40236   0.47013
 Alpha virt. eigenvalues --    0.47013   0.49259   0.71309   0.95789   0.95789

 Mulliken charges and spin densities:
               1          2
     1  O    0.000000   2.000000
 Sum of Mulliken charges =   0.00000   2.00000

 Dipole moment (field-independent basis, Debye):
    X=              0.0000    Y=              0.0000    Z=              0.0000  Tot=              0.0000
 Quadrupole moment (field-independent basis, Debye-Ang):
   XX=             -5.7934   YY=             -4.5598   ZZ=             -4.5598
   XY=             -0.0000   XZ=              0.0000   YZ=              0.0000

 P ROCCSD(T)=(maxcyc=150, Full)/Gen 5d 7f SCF=(maxcycles=300) MaxDisk=5
 Normal termination of Gaussian 16 at Wed Feb 21 16:23:34 2018.
