 Gaussian 16, Revision A.03,
 Gaussian 16:  ES64L-G16RevA.03 25-Dec-2016

 ----------------------------------------------------------------------
 #P ROCCSD(T)=(maxcyc=150, Full, SaveAmplitudes, ReadAmplitudes)/Gen 5d
  7f SCF=(maxcycles=300, VShift=400) Integral(NoXCTest) MaxDisk=500GB P
 op=Full Pseudo=Read Guess=Read IOp(5/15=2)
 ----------------------------------------------------------------------

 ---
 MnH
 ---
 Symbolic Z-matrix:
 Charge =  0 Multiplicity = 7

                         Standard orientation:
 ---------------------------------------------------------------------
 Center     Atomic      Atomic             Coordinates (Angstroms)
 Number     Number       Type             X           Y           Z
 ---------------------------------------------------------------------
      1         25           0        0.000000    0.000000    0.069231
      2          1           0        0.000000    0.000000   -1.730769
 ---------------------------------------------------------------------

 SCF Done:  E(ROHF) =  -103.800002892     A.U. after   30 cycles
 E2 =    -0.5715314296D+00 EUMP2 =    -0.10437153432166D+03
 CCSD(T)
 CCSD(T)= -0.10439434259D+03

 The electronic state is 7-SG.
 Alpha  occ. eigenvalues --   -4.15397  -2.77478  -2.77478  -2.77246  -0.64915
 Alpha  occ. eigenvalues --   -0.64915  -0.64438  -0.64213  -0.64213  -0.40190
 Alpha  occ. eigenvalues --   -0.26446
 Alpha virt. eigenvalues --    0.01185   0.01185   0.02337   0.03118   0.05666
 Alpha virt. eigenvalues --    0.05666   0.08202   0.08446   0.08446   0.08925
 Alpha virt. eigenvalues --    0.08925   0.09971   0.13731   0.19209   0.22595

 Mulliken charges and spin densities:
               1          2
     1  Mn   0.429508   5.957957
     2  H   -0.429508   0.042043
 Sum of Mulliken charges =  -0.00000   6.00000

 Dipole moment (field-independent basis, Debye):
    X=              0.0000    Y=              0.0000    Z=              1.6652  Tot=              1.6652
 Quadrupole moment (field-independent basis, Debye-Ang):
   XX=            -16.2799   YY=            -16.2799   ZZ=            -26.8487
   XY=              0.0000   XZ=              0.0000   YZ=              0.0000

 \\#P ROCCSD(T)=(maxcyc=150, Full, SaveAmplitudes, ReadAmplitudes)/Gen
 4SDQ=-104.3779\CCSD=-104.3787355\CCSD(T)=-104.3943426\RMSD=9.356e-09\P
 Normal termination of Gaussian 16 at Sat May  5 10:51:25 2018.
