 Gaussian 16, Revision A.03,
 Gaussian 16:  ES64L-G16RevA.03 25-Dec-2016

 ----------------------------------------------------------------------
 #P ROCCSD(T)=(maxcyc=150, Full)/Gen 5d 7f SCF=(maxcycles=300) Integral
 (NoXCTest) MaxDisk=500GB Pop=Regular Pseudo=Read IOp(5/15=2) Guess=Rea
 d
 ----------------------------------------------------------------------

 ---
 ScH
 ---
 Symbolic Z-matrix:
 Charge =  0 Multiplicity = 1

                         Standard orientation:
 ---------------------------------------------------------------------
 Center     Atomic      Atomic             Coordinates (Angstroms)
 Number     Number       Type             X           Y           Z
 ---------------------------------------------------------------------
      1         21           0        0.000000    0.000000    0.100000
      2          1           0        0.000000    0.000000   -2.100000
 ---------------------------------------------------------------------

 SCF Done:  E(ROHF) =  -46.7697843917     A.U. after   11 cycles
 E2 =    -0.4292340228D+00 EUMP2 =    -0.47199018414470D+02
 CCSD(T)
 CCSD(T)= -0.47245394044D+02

 The electronic state is 1-SG.
 Alpha  occ. eigenvalues --   -2.78900  -1.69232  -1.69232  -1.69014  -0.35862
 Alpha  occ. eigenvalues --   -0.24619
 Alpha virt. eigenvalues --    0.00794   0.00794   0.01007   0.01860   0.02547
 Alpha virt. eigenvalues --    0.02547   0.02686   0.02686   0.02772   0.03311
 Alpha virt. eigenvalues --    0.03653   0.03653   0.05847   0.05847   0.06757

 Mulliken charges and spin densities:
               1          2
     1  Sc   0.350693   0.000000
     2  H   -0.350693   0.000000
 Sum of Mulliken charges =  -0.00000   0.00000

 Dipole moment (field-independent basis, Debye):
    X=              0.0000    Y=              0.0000    Z=              2.8791  Tot=              2.8791
 Quadrupole moment (field-independent basis, Debye-Ang):
   XX=            -22.8854   YY=            -22.8854   ZZ=            -30.2922
   XY=              0.0000   XZ=              0.0000   YZ=              0.0000

 P ROCCSD(T)=(maxcyc=150, Full)/Gen 5d 7f SCF=(maxcycles=300) Integral(
 PMP2-0=-47.1990184\MP4SDQ=-47.223176\CCSD=-47.224224\CCSD(T)=-47.24539
 Normal termination of Gaussian 16 at Wed Feb 14 13:18:11 2018.
