 Gaussian 16, Revision A.03,
 Gaussian 16:  ES64L-G16RevA.03 25-Dec-2016

 ----------------------------------------------------------------------
 #P ROCCSD(T)=(maxcyc=150, Full)/Gen 5d 7f SCF=(maxcycles=300) Integral
 (NoXCTest) MaxDisk=500GB Pop=Regular Pseudo=Read Guess=Read
 ----------------------------------------------------------------------

 ---
 CrH
 ---
 Symbolic Z-matrix:
 Charge =  0 Multiplicity = 6

                         Standard orientation:
 ---------------------------------------------------------------------
 Center     Atomic      Atomic             Coordinates (Angstroms)
 Number     Number       Type             X           Y           Z
 ---------------------------------------------------------------------
      1         24           0        0.000000    0.000000    0.080000
      2          1           0        0.000000    0.000000   -1.920000
 ---------------------------------------------------------------------

 SCF Done:  E(ROHF) =  -86.6856366875     A.U. after   22 cycles
 E2 =    -0.5553623594D+00 EUMP2 =    -0.87240999046820D+02
 CCSD(T)
 CCSD(T)= -0.87292426022D+02

 The electronic state is 6-SG.
 Alpha  occ. eigenvalues --   -3.75375  -2.50866  -2.50866  -2.45884  -0.57845
 Alpha  occ. eigenvalues --   -0.57845  -0.54358  -0.54358  -0.37771  -0.26820
 Alpha virt. eigenvalues --    0.00954   0.00954   0.01740   0.02348   0.04254
 Alpha virt. eigenvalues --    0.04552   0.04552   0.04880   0.04880   0.05229
 Alpha virt. eigenvalues --    0.05229   0.06209   0.08590   0.11005   0.15172

 Mulliken charges and spin densities:
               1          2
     1  Cr   0.344032   4.969019
     2  H   -0.344032   0.030981
 Sum of Mulliken charges =  -0.00000   5.00000

 Dipole moment (field-independent basis, Debye):
    X=              0.0000    Y=              0.0000    Z=              2.9790  Tot=              2.9790
 Quadrupole moment (field-independent basis, Debye-Ang):
   XX=            -17.2548   YY=            -17.2548   ZZ=            -26.9168
   XY=              0.0000   XZ=              0.0000   YZ=              0.0000

 \\#P ROCCSD(T)=(maxcyc=150, Full)/Gen 5d 7f SCF=(maxcycles=300) Integr
 240999\MP4SDQ=-87.2536007\CCSD=-87.2763805\CCSD(T)=-87.292426\RMSD=2.4
 Normal termination of Gaussian 16 at Tue Feb 13 16:00:32 2018.
