 Gaussian 16, Revision A.03,
 Gaussian 16:  ES64L-G16RevA.03 25-Dec-2016

 ----------------------------------------------------------------------
 #P ROCCSD(T)=(maxcyc=150, Full, SaveAmplitudes, ReadAmplitudes)/Gen 5d
  7f SCF=(maxcycles=300) Integral(NoXCTest) MaxDisk=500GB Pop=Regular P
 seudo=Read Guess=Read
 ----------------------------------------------------------------------

 ---
 MnH
 ---
 Symbolic Z-matrix:
 Charge =  0 Multiplicity = 7

                         Standard orientation:
 ---------------------------------------------------------------------
 Center     Atomic      Atomic             Coordinates (Angstroms)
 Number     Number       Type             X           Y           Z
 ---------------------------------------------------------------------
      1         25           0        0.000000    0.000000    0.073077
      2          1           0        0.000000    0.000000   -1.826923
 ---------------------------------------------------------------------

 SCF Done:  E(ROHF) =  -104.243787042     A.U. after   20 cycles
 E2 =    -0.5970388101D+00 EUMP2 =    -0.10484082585236D+03
 CCSD(T)
 CCSD(T)= -0.10486321313D+03

 The electronic state is 7-SG.
 Alpha  occ. eigenvalues --   -4.18576  -2.77552  -2.77552  -2.77292  -0.66056
 Alpha  occ. eigenvalues --   -0.66056  -0.65430  -0.65379  -0.65379  -0.39498
 Alpha  occ. eigenvalues --   -0.26704
 Alpha virt. eigenvalues --    0.01078   0.01078   0.02165   0.02886   0.04967
 Alpha virt. eigenvalues --    0.04967   0.05600   0.05773   0.05773   0.06198
 Alpha virt. eigenvalues --    0.06198   0.09443   0.12546   0.13820   0.18057

 Mulliken charges and spin densities:
               1          2
     1  Mn   0.373195   5.951865
     2  H   -0.373195   0.048135
 Sum of Mulliken charges =  -0.00000   6.00000

 Dipole moment (field-independent basis, Debye):
    X=              0.0000    Y=              0.0000    Z=              2.0677  Tot=              2.0677
 Quadrupole moment (field-independent basis, Debye-Ang):
   XX=            -16.2736   YY=            -16.2736   ZZ=            -27.3135
   XY=              0.0000   XZ=              0.0000   YZ=              0.0000

 \\#P ROCCSD(T)=(maxcyc=150, Full, SaveAmplitudes, ReadAmplitudes)/Gen
 .243787\PMP2-0=-104.8408259\CCSD=-104.8468126\CCSD(T)=-104.8632131\RMS
 Normal termination of Gaussian 16 at Mon Feb 26 16:44:36 2018.
