 Gaussian 16, Revision A.03,
 Gaussian 16:  ES64L-G16RevA.03 25-Dec-2016

 ----------------------------------------------------------------------
 #P ROCCSD(T)=(MaxCyc=150, Full)/Gen SCF=(maxcycle=400, vshift=200) Pse
 udo=Read Integral(NoXCTest) Pop=Regular MaxDisk=500GB Guess=Read IOp(5
 /15=2)
 ----------------------------------------------------------------------

 ---
 CuH
 ---
 Symbolic Z-matrix:
 Charge =  0 Multiplicity = 1

                         Standard orientation:
 ---------------------------------------------------------------------
 Center     Atomic      Atomic             Coordinates (Angstroms)
 Number     Number       Type             X           Y           Z
 ---------------------------------------------------------------------
      1         29           0        0.000000    0.000000    0.050000
      2          1           0        0.000000    0.000000   -1.450000
 ---------------------------------------------------------------------

 SCF Done:  E(ROHF) =  -195.889182567     A.U. after   15 cycles
 E2 =    -0.1085740316D+01 EUMP2 =    -0.19697492288276D+03
 CCSD(T)
 CCSD(T)= -0.19689457232D+03

 The electronic state is 1-SG.
 Alpha  occ. eigenvalues --   -5.22753  -3.39790  -3.39438  -3.39438  -0.50591
 Alpha  occ. eigenvalues --   -0.49918  -0.49918  -0.49738  -0.49738  -0.34008
 Alpha virt. eigenvalues --    0.00147   0.02938   0.02938   0.03591   0.05408
 Alpha virt. eigenvalues --    0.10012   0.10364   0.10364   0.17205   0.19625
 Alpha virt. eigenvalues --    0.19625   0.20360   0.20360   0.21315   0.25915

 Mulliken charges and spin densities:
               1          2
     1  Cu   0.365392   0.000000
     2  H   -0.365392   0.000000
 Sum of Mulliken charges =   0.00000   0.00000

 Dipole moment (field-independent basis, Debye):
    X=              0.0000    Y=              0.0000    Z=              3.9667  Tot=              3.9667
 Quadrupole moment (field-independent basis, Debye-Ang):
   XX=            -13.6953   YY=            -13.6953   ZZ=            -16.0191
   XY=              0.0000   XZ=              0.0000   YZ=              0.0000

 P ROCCSD(T)=(MaxCyc=150, Full)/Gen SCF=(maxcycle=400, vshift=200) Pseu
 Normal termination of Gaussian 16 at Sat May  5 21:03:03 2018.
