 Gaussian 16, Revision A.03,
 Gaussian 16:  ES64L-G16RevA.03 25-Dec-2016

 ----------------------------------------------------------------------
 #P ROCCSD(T)=(MaxCyc=150, Full)/Gen SCF=(maxcycle=400, vshift=200) Pse
 udo=Read Integral(NoXCTest) Pop=Regular MaxDisk=500GB Guess=Read IOp(5
 /15=2)
 ----------------------------------------------------------------------

 ---
 CuH
 ---
 Symbolic Z-matrix:
 Charge =  0 Multiplicity = 1

                         Standard orientation:
 ---------------------------------------------------------------------
 Center     Atomic      Atomic             Coordinates (Angstroms)
 Number     Number       Type             X           Y           Z
 ---------------------------------------------------------------------
      1         29           0        0.000000    0.000000    0.050000
      2          1           0        0.000000    0.000000   -1.450000
 ---------------------------------------------------------------------

 SCF Done:  E(ROHF) =  -195.891401935     A.U. after   11 cycles
 E2 =    -0.1137756747D+01 EUMP2 =    -0.19702915868233D+03
 CCSD(T)
 CCSD(T)= -0.19694740403D+03

 The electronic state is 1-SG.
 Alpha  occ. eigenvalues --   -5.22748  -3.39771  -3.39425  -3.39425  -0.50591
 Alpha  occ. eigenvalues --   -0.49923  -0.49923  -0.49747  -0.49747  -0.34012
 Alpha virt. eigenvalues --    0.00130   0.02644   0.02644   0.03251   0.05042
 Alpha virt. eigenvalues --    0.08939   0.08990   0.08990   0.13463   0.13515
 Alpha virt. eigenvalues --    0.13515   0.13893   0.13893   0.19931   0.22180

 Mulliken charges and spin densities:
               1          2
     1  Cu   0.344132   0.000000
     2  H   -0.344132   0.000000
 Sum of Mulliken charges =  -0.00000   0.00000

 Dipole moment (field-independent basis, Debye):
    X=              0.0000    Y=              0.0000    Z=              3.9567  Tot=              3.9567
 Quadrupole moment (field-independent basis, Debye-Ang):
   XX=            -13.6847   YY=            -13.6847   ZZ=            -16.0357
   XY=              0.0000   XZ=              0.0000   YZ=              0.0000

 P ROCCSD(T)=(MaxCyc=150, Full)/Gen SCF=(maxcycle=400, vshift=200) Pseu
 Normal termination of Gaussian 16 at Sat May  5 21:59:25 2018.
