 Gaussian 16, Revision A.03,
 Gaussian 16:  ES64L-G16RevA.03 25-Dec-2016

 ----------------------------------------------------------------------
 #P ROCCSD(T)=(MaxCyc=150, Full)/Gen SCF=(maxcycle=400, vshift=200) Pse
 udo=Read Integral(NoXCTest) Pop=Regular MaxDisk=500GB Guess=Read IOp(5
 /15=2)
 ----------------------------------------------------------------------

 ---
 CuH
 ---
 Symbolic Z-matrix:
 Charge =  0 Multiplicity = 1

                         Standard orientation:
 ---------------------------------------------------------------------
 Center     Atomic      Atomic             Coordinates (Angstroms)
 Number     Number       Type             X           Y           Z
 ---------------------------------------------------------------------
      1         29           0        0.000000    0.000000    0.050000
      2          1           0        0.000000    0.000000   -1.450000
 ---------------------------------------------------------------------

 SCF Done:  E(ROHF) =  -195.891650226     A.U. after   10 cycles
 E2 =    -0.1162816758D+01 EUMP2 =    -0.19705446698473D+03
 CCSD(T)
 CCSD(T)= -0.19697050466D+03

 The electronic state is 1-SG.
 Alpha  occ. eigenvalues --   -5.22748  -3.39770  -3.39424  -3.39424  -0.50591
 Alpha  occ. eigenvalues --   -0.49925  -0.49925  -0.49748  -0.49748  -0.34013
 Alpha virt. eigenvalues --    0.00063   0.02559   0.02559   0.02972   0.04285
 Alpha virt. eigenvalues --    0.07720   0.08623   0.08623   0.12120   0.12120
 Alpha virt. eigenvalues --    0.12139   0.12475   0.12475   0.15195   0.18600

 Mulliken charges and spin densities:
               1          2
     1  Cu   0.297062   0.000000
     2  H   -0.297062   0.000000
 Sum of Mulliken charges =  -0.00000   0.00000

 Dipole moment (field-independent basis, Debye):
    X=              0.0000    Y=              0.0000    Z=              3.9550  Tot=              3.9550
 Quadrupole moment (field-independent basis, Debye-Ang):
   XX=            -13.6831   YY=            -13.6831   ZZ=            -16.0386
   XY=              0.0000   XZ=              0.0000   YZ=              0.0000

 P ROCCSD(T)=(MaxCyc=150, Full)/Gen SCF=(maxcycle=400, vshift=200) Pseu
 Normal termination of Gaussian 16 at Sun May  6 00:49:40 2018.
