 Gaussian 16, Revision A.03,
 Gaussian 16:  ES64L-G16RevA.03 25-Dec-2016

 ----------------------------------------------------------------------
 #P ROCCSD(T)=(MaxCyc=150, Full)/Gen SCF=(maxcycle=400) Pseudo=Read Int
 egral(NoXCTest) Pop=Regular MaxDisk=500GB Guess=Read IOp(5/15=2)
 ----------------------------------------------------------------------

 ---
 NiO
 ---
 Symbolic Z-matrix:
 Charge =  0 Multiplicity = 3

                         Standard orientation:
 ---------------------------------------------------------------------
 Center     Atomic      Atomic             Coordinates (Angstroms)
 Number     Number       Type             X           Y           Z
 ---------------------------------------------------------------------
      1         28           0        0.000000    0.000000    0.333333
      2          8           0        0.000000    0.000000   -1.166667
 ---------------------------------------------------------------------

 SCF Done:  E(ROHF) =  -184.909648036     A.U. after   18 cycles
 E2 =    -0.1254081883D+01 EUMP2 =    -0.18616372991870D+03
 CCSD(T)
 CCSD(T)= -0.18617999078D+03

 The electronic state is 3-SG.
 Alpha  occ. eigenvalues --   -5.02325  -3.47673  -3.38660  -3.38660  -1.18248
 Alpha  occ. eigenvalues --   -0.79030  -0.79030  -0.71265  -0.68878  -0.68878
 Alpha  occ. eigenvalues --   -0.39298  -0.39298  -0.37937
 Alpha virt. eigenvalues --   -0.04532   0.02041   0.02041   0.02194   0.03865
 Alpha virt. eigenvalues --    0.07119   0.07119   0.07603   0.08097   0.08097
 Alpha virt. eigenvalues --    0.09397   0.09397   0.13011   0.15100   0.22230

 Mulliken charges and spin densities:
               1          2
     1  Ni   0.986489   1.845154
     2  O   -0.986489   0.154846
 Sum of Mulliken charges =  -0.00000   2.00000

 Dipole moment (field-independent basis, Debye):
    X=              0.0000    Y=              0.0000    Z=              7.4896  Tot=              7.4896
 Quadrupole moment (field-independent basis, Debye-Ang):
   XX=            -18.1427   YY=            -18.1427   ZZ=            -20.1176
   XY=              0.0000   XZ=              0.0000   YZ=              0.0000

 \\#P ROCCSD(T)=(MaxCyc=150, Full)/Gen SCF=(maxcycle=400) Pseudo=Read I
 P2-0=-186.1637299\MP4SDQ=-186.1353676\CCSD=-186.1194273\CCSD(T)=-186.1
 Normal termination of Gaussian 16 at Mon Mar 26 19:32:41 2018.
