 Gaussian 16, Revision A.03,
 Gaussian 16:  ES64L-G16RevA.03 25-Dec-2016

 ----------------------------------------------------------------------
 #P ROCCSD(T)=(MaxCyc=150, Full)/Gen SCF=(maxcycle=400) Pseudo=Read Int
 egral(NoXCTest) Pop=Regular MaxDisk=500GB Guess=Read IOp(5/15=2)
 ----------------------------------------------------------------------

 ---
 NiO
 ---
 Symbolic Z-matrix:
 Charge =  0 Multiplicity = 3

                         Standard orientation:
 ---------------------------------------------------------------------
 Center     Atomic      Atomic             Coordinates (Angstroms)
 Number     Number       Type             X           Y           Z
 ---------------------------------------------------------------------
      1         28           0        0.000000    0.000000    0.333333
      2          8           0        0.000000    0.000000   -1.166667
 ---------------------------------------------------------------------

 SCF Done:  E(ROHF) =  -184.905964010     A.U. after   21 cycles
 E2 =    -0.1196421987D+01 EUMP2 =    -0.18610238599661D+03
 CCSD(T)
 CCSD(T)= -0.18612107371D+03

 The electronic state is 3-SG.
 Alpha  occ. eigenvalues --   -5.02360  -3.47704  -3.38684  -3.38684  -1.18295
 Alpha  occ. eigenvalues --   -0.79029  -0.79029  -0.71268  -0.68873  -0.68873
 Alpha  occ. eigenvalues --   -0.39297  -0.39297  -0.37942
 Alpha virt. eigenvalues --   -0.04540   0.02424   0.02424   0.02490   0.04275
 Alpha virt. eigenvalues --    0.08493   0.08493   0.10744   0.12338   0.12338
 Alpha virt. eigenvalues --    0.13263   0.13263   0.15601   0.16337   0.26437

 Mulliken charges and spin densities:
               1          2
     1  Ni   1.139923   1.841925
     2  O   -1.139923   0.158075
 Sum of Mulliken charges =  -0.00000   2.00000

 Dipole moment (field-independent basis, Debye):
    X=              0.0000    Y=              0.0000    Z=              7.5028  Tot=              7.5028
 Quadrupole moment (field-independent basis, Debye-Ang):
   XX=            -18.1510   YY=            -18.1510   ZZ=            -20.1324
   XY=              0.0000   XZ=              0.0000   YZ=              0.0000

 \\#P ROCCSD(T)=(MaxCyc=150, Full)/Gen SCF=(maxcycle=400) Pseudo=Read I
 2-0=-186.102386\MP4SDQ=-186.0797568\CCSD=-186.0630863\CCSD(T)=-186.121
 Normal termination of Gaussian 16 at Mon Mar 26 16:55:12 2018.
