 Gaussian 16, Revision A.03,
 Gaussian 16:  ES64L-G16RevA.03 25-Dec-2016

 ----------------------------------------------------------------------
 #P ROCCSD(T)=(maxcyc=150, Full)/Gen 5d 7f SCF=(maxcycles=300, NoVarAcc
 , VShift=200) MaxDisk=100GB Pop=Regular Pseudo=Read Guess=Read
 ----------------------------------------------------------------------

 --
 Mn
 --
 Symbolic Z-matrix:
 Charge =  0 Multiplicity = 6

                         Standard orientation:
 ---------------------------------------------------------------------
 Center     Atomic      Atomic             Coordinates (Angstroms)
 Number     Number       Type             X           Y           Z
 ---------------------------------------------------------------------
      1         25           0        0.000000    0.000000    0.000000
 ---------------------------------------------------------------------

 SCF Done:  E(ROHF) =  -103.690517571     A.U. after   20 cycles
 E2 =    -0.5976065856D+00 EUMP2 =    -0.10428812415616D+03
 CCSD(T)
 CCSD(T)= -0.10430767894D+03

 The electronic state is 6-A1G.
 Alpha  occ. eigenvalues --   -4.16386  -2.75298  -2.75298  -2.75298  -0.63540
 Alpha  occ. eigenvalues --   -0.63540  -0.63540  -0.63540  -0.63540  -0.26868
 Alpha virt. eigenvalues --    0.01777   0.01777   0.01777   0.02538   0.05911
 Alpha virt. eigenvalues --    0.05911   0.05911   0.06097   0.06097   0.06097
 Alpha virt. eigenvalues --    0.06097   0.06097   0.13362   0.19361   0.19361

 Mulliken charges and spin densities:
               1          2
     1  Mn   0.000000   5.000000
 Sum of Mulliken charges =   0.00000   5.00000

 Dipole moment (field-independent basis, Debye):
    X=              0.0000    Y=              0.0000    Z=              0.0000  Tot=              0.0000
 Quadrupole moment (field-independent basis, Debye-Ang):
   XX=            -18.6957   YY=            -18.6957   ZZ=            -18.6957
   XY=              0.0000   XZ=             -0.0000   YZ=             -0.0000

 1\1\GINC-C442-121\SP\ROCCSD(T)-Full\Gen\Mn1(6)\AANNABE\12-Mar-2018\0\\
 #P ROCCSD(T)=(maxcyc=150, Full)/Gen 5d 7f SCF=(maxcycles=300, NoVarAcc
 , VShift=200) MaxDisk=100GB Pop=Regular Pseudo=Read Guess=Read\\Mn\\0,
 6\Mn,0,0.,0.,0.\\Version=ES64L-G16RevA.03\State=6-A1G\HF=-103.6905176\
 MP2=-104.2881242\MP3=-104.2864631\PUHF=-103.6905176\PMP2-0=-104.288124
 2\MP4SDQ=-104.2892482\CCSD=-104.2892982\CCSD(T)=-104.3076789\RMSD=6.91
 6e-09\PG=OH [O(Mn1)]\\@

 Normal termination of Gaussian 16 at Mon Mar 12 14:08:15 2018.
