 Gaussian 16, Revision A.03,
 Gaussian 16:  ES64L-G16RevA.03 25-Dec-2016

 ----------------------------------------------------------------------
 #P ROCCSD(T)=(MaxCyc=150, Full)/Gen SCF=(maxcycle=400, vshift=200) Pse
 udo=Read Integral(NoXCTest) Pop=Regular MaxDisk=500GB
 ----------------------------------------------------------------------

 ---
 FeO
 ---
 Symbolic Z-matrix:
 Charge =  0 Multiplicity = 5

                         Standard orientation:
 ---------------------------------------------------------------------
 Center     Atomic      Atomic             Coordinates (Angstroms)
 Number     Number       Type             X           Y           Z
 ---------------------------------------------------------------------
      1         26           0        0.000000    0.000000    0.305882
      2          8           0        0.000000    0.000000   -0.994118
 ---------------------------------------------------------------------

 SCF Done:  E(ROHF) =  -138.169022796     A.U. after   29 cycles
 E2 =    -0.1044194758D+01 EUMP2 =    -0.13921321755442D+03
 CCSD(T)
 CCSD(T)= -0.13920505979D+03

 Unable to determine electronic state:  partially filled degenerate orbitals.
 Alpha  occ. eigenvalues --   -4.42495  -2.98832  -2.92572  -2.92572  -1.29342
 Alpha  occ. eigenvalues --   -0.75968  -0.75968  -0.62719  -0.61660  -0.58399
 Alpha  occ. eigenvalues --   -0.43213  -0.43213  -0.30779
 Alpha virt. eigenvalues --    0.01758   0.02509   0.02509   0.03304   0.06037
 Alpha virt. eigenvalues --    0.08037   0.08037   0.09911   0.09941   0.10273
 Alpha virt. eigenvalues --    0.10273   0.10768   0.12625   0.16966   0.26194

 Mulliken charges and spin densities:
               1          2
     1  Fe   0.725928   3.741571
     2  O   -0.725928   0.258429
 Sum of Mulliken charges =  -0.00000   4.00000

 Dipole moment (field-independent basis, Debye):
    X=              0.0000    Y=              0.0000    Z=              2.9537  Tot=              2.9537
 Quadrupole moment (field-independent basis, Debye-Ang):
   XX=            -19.3509   YY=            -19.3509   ZZ=            -21.6281
   XY=              0.0000   XZ=              0.0000   YZ=              0.0000

 \\#P ROCCSD(T)=(MaxCyc=150, Full)/Gen SCF=(maxcycle=400, vshift=200) P
 4SDQ=-139.1887413\CCSD=-139.1600748\CCSD(T)=-139.2050598\RMSD=8.006e-0
 Normal termination of Gaussian 16 at Wed Apr 18 05:33:10 2018.
