 Gaussian 16, Revision A.03,
 Gaussian 16:  ES64L-G16RevA.03 25-Dec-2016

 ----------------------------------------------------------------------
 #P ROCCSD(T)=(MaxCyc=150, Full)/Gen SCF=(maxcycle=400, vshift=200) Pse
 udo=Read Integral(NoXCTest) Pop=Regular MaxDisk=500GB
 ----------------------------------------------------------------------

 ---
 FeO
 ---
 Symbolic Z-matrix:
 Charge =  0 Multiplicity = 5

                         Standard orientation:
 ---------------------------------------------------------------------
 Center     Atomic      Atomic             Coordinates (Angstroms)
 Number     Number       Type             X           Y           Z
 ---------------------------------------------------------------------
      1         26           0        0.000000    0.000000    0.305882
      2          8           0        0.000000    0.000000   -0.994118
 ---------------------------------------------------------------------

 SCF Done:  E(ROHF) =  -138.172704340     A.U. after   27 cycles
 E2 =    -0.1092558534D+01 EUMP2 =    -0.13926526287394D+03
 CCSD(T)
 CCSD(T)= -0.13925488302D+03

 Unable to determine electronic state:  partially filled degenerate orbitals.
 Alpha  occ. eigenvalues --   -4.42463  -2.98779  -2.92545  -2.92545  -1.29280
 Alpha  occ. eigenvalues --   -0.75958  -0.75958  -0.62704  -0.61644  -0.58389
 Alpha  occ. eigenvalues --   -0.43211  -0.43211  -0.30762
 Alpha virt. eigenvalues --    0.01653   0.02278   0.02278   0.03044   0.05405
 Alpha virt. eigenvalues --    0.06452   0.06452   0.06661   0.06671   0.07612
 Alpha virt. eigenvalues --    0.07985   0.07985   0.11468   0.15556   0.19586

 Mulliken charges and spin densities:
               1          2
     1  Fe   0.896552   3.729640
     2  O   -0.896552   0.270360
 Sum of Mulliken charges =  -0.00000   4.00000

 Dipole moment (field-independent basis, Debye):
    X=              0.0000    Y=              0.0000    Z=              2.9430  Tot=              2.9430
 Quadrupole moment (field-independent basis, Debye-Ang):
   XX=            -19.3506   YY=            -19.3506   ZZ=            -21.6096
   XY=              0.0000   XZ=              0.0000   YZ=              0.0000

 \\#P ROCCSD(T)=(MaxCyc=150, Full)/Gen SCF=(maxcycle=400, vshift=200) P
 4SDQ=-139.2359695\CCSD=-139.2077647\CCSD(T)=-139.254883\RMSD=9.058e-09
 Normal termination of Gaussian 16 at Wed Apr 18 07:28:33 2018.
