 Gaussian 16, Revision A.03,
 Gaussian 16:  ES64L-G16RevA.03 25-Dec-2016

 ----------------------------------------------------------------------
 #P ROCCSD(T)=(MaxCyc=150, Full)/Gen SCF=(maxcycle=400) Integral(DKHSO,
  NoXCTest) Pop=Regular MaxDisk=500GB Guess=Read IOp(5/15=2)
 ----------------------------------------------------------------------

 --
 Ni
 --
 Symbolic Z-matrix:
 Charge =  0 Multiplicity = 3

                         Standard orientation:
 ---------------------------------------------------------------------
 Center     Atomic      Atomic             Coordinates (Angstroms)
 Number     Number       Type             X           Y           Z
 ---------------------------------------------------------------------
      1         28           0        0.000000    0.000000    0.000000
 ---------------------------------------------------------------------

 SCF Done:  E(ROHF) =  -1519.09003908     A.U. after   14 cycles
 E2 =    -0.1313613174D+01 EUMP2 =    -0.15204036522499D+04
 CCSD(T)
 CCSD(T)= -0.15203751940D+04

 Unable to determine electronic state:  an orbital has unidentified symmetry.
 Alpha  occ. eigenvalues -- -308.79520 -38.66163 -33.14426 -33.10503 -33.10503
 Alpha  occ. eigenvalues --   -5.09920  -3.47091  -3.39058  -3.39058  -0.76741
 Alpha  occ. eigenvalues --   -0.76741  -0.72872  -0.68142  -0.68142  -0.28807
 Alpha virt. eigenvalues --    0.02121   0.02255   0.02255   0.02990   0.06786
 Alpha virt. eigenvalues --    0.07151   0.07151   0.08332   0.08332   0.08332
 Alpha virt. eigenvalues --    0.08366   0.08366   0.16066   0.22731   0.23324

 Mulliken charges and spin densities:
               1          2
     1  Ni   0.000000   2.000000
 Sum of Mulliken charges =   0.00000   2.00000

 Dipole moment (field-independent basis, Debye):
    X=              0.0000    Y=              0.0000    Z=              0.0000  Tot=              0.0000
 Quadrupole moment (field-independent basis, Debye-Ang):
   XX=            -16.7863   YY=            -16.5328   ZZ=            -16.7863
   XY=             -0.0000   XZ=             -0.0000   YZ=              0.0000

 1\1\GINC-C403-034\SP\ROCCSD(T)-Full\Gen\Ni1(3)\GWANG18\27-Mar-2018\0\\
 #P ROCCSD(T)=(MaxCyc=150, Full)/Gen SCF=(maxcycle=400) Integral(DKHSO,
  NoXCTest) Pop=Regular MaxDisk=500GB Guess=Read IOp(5/15=2)\\Ni\\0,3\N
 i,0,0.,0.,0.\\Version=ES64L-G16RevA.03\HF=-1519.0900391\MP2=-1520.4036
 522\MP3=-1520.3180583\PUHF=-1519.0900391\PMP2-0=-1520.4036522\MP4SDQ=-
 1520.3590449\CCSD=-1520.346175\CCSD(T)=-1520.375194\RMSD=1.757e-09\PG=
 OH [O(Ni1)]\\@

 Normal termination of Gaussian 16 at Tue Mar 27 11:54:24 2018.
