 Gaussian 16, Revision A.03,
 Gaussian 16:  ES64L-G16RevA.03 25-Dec-2016

 ----------------------------------------------------------------------
 #P ROCCSD(T)=(maxcyc=150, Full, SaveAmplitudes, ReadAmplitudes)/Gen 5d
  7f SCF=(maxcycles=300) Integral(NoXCTest) MaxDisk=500GB Pop=Regular P
 seudo=Read Guess=Read
 ----------------------------------------------------------------------

 ---
 TiO
 ---
 Symbolic Z-matrix:
 Charge =  0 Multiplicity = 3

                         Standard orientation:
 ---------------------------------------------------------------------
 Center     Atomic      Atomic             Coordinates (Angstroms)
 Number     Number       Type             X           Y           Z
 ---------------------------------------------------------------------
      1         22           0        0.000000    0.000000    0.373333
      2          8           0        0.000000    0.000000   -1.026667
 ---------------------------------------------------------------------

 SCF Done:  E(ROHF) =  -73.4906166912     A.U. after   20 cycles
 E2 =    -0.7840074045D+00 EUMP2 =    -0.74274624095735D+02
 CCSD(T)
 CCSD(T)= -0.74297118201D+02

 Unable to determine electronic state:  an orbital has unidentified symmetry.
 Alpha  occ. eigenvalues --   -2.98740  -1.90258  -1.83758  -1.83758  -1.14827
 Alpha  occ. eigenvalues --   -0.53389  -0.53389  -0.50189  -0.38578  -0.23400
 Alpha virt. eigenvalues --    0.00941   0.00941   0.02018   0.02301   0.03775
 Alpha virt. eigenvalues --    0.03830   0.03852   0.03852   0.03954   0.04377
 Alpha virt. eigenvalues --    0.04377   0.06741   0.10313   0.10459   0.11383

 Mulliken charges and spin densities:
               1          2
     1  Ti   1.011361   1.975172
     2  O   -1.011361   0.024828
 Sum of Mulliken charges =  -0.00000   2.00000

 Dipole moment (field-independent basis, Debye):
    X=              0.0000    Y=              0.0000    Z=              1.9430  Tot=              1.9430
 Quadrupole moment (field-independent basis, Debye-Ang):
   XX=            -21.6077   YY=            -21.6077   ZZ=            -27.7395
   XY=              0.0000   XZ=              0.0000   YZ=              0.0000

 \\#P ROCCSD(T)=(maxcyc=150, Full, SaveAmplitudes, ReadAmplitudes)/Gen
 -0=-74.2746241\CCSD=-74.2571593\CCSD(T)=-74.2971182\RMSD=4.536e-09\PG=
 Normal termination of Gaussian 16 at Mon Mar 12 15:34:54 2018.
