 Gaussian 16, Revision A.03,
 Gaussian 16:  ES64L-G16RevA.03 25-Dec-2016

 ----------------------------------------------------------------------
 #P ROCCSD(T)=(maxcyc=150, Full, SaveAmplitudes, ReadAmplitudes)/Gen 5d
  7f SCF=(maxcycles=300) Integral(NoXCTest) MaxDisk=500GB Pop=Regular P
 seudo=Read Guess=Read
 ----------------------------------------------------------------------

 ---
 TiO
 ---
 Symbolic Z-matrix:
 Charge =  0 Multiplicity = 3

                         Standard orientation:
 ---------------------------------------------------------------------
 Center     Atomic      Atomic             Coordinates (Angstroms)
 Number     Number       Type             X           Y           Z
 ---------------------------------------------------------------------
      1         22           0        0.000000    0.000000    0.426667
      2          8           0        0.000000    0.000000   -1.173333
 ---------------------------------------------------------------------

 SCF Done:  E(ROHF) =  -73.5277684262     A.U. after   19 cycles
 E2 =    -0.7811980999D+00 EUMP2 =    -0.74308966526107D+02
 CCSD(T)
 CCSD(T)= -0.74336754079D+02

 Unable to determine electronic state:  an orbital has unidentified symmetry.
 Alpha  occ. eigenvalues --   -3.04106  -1.89716  -1.89716  -1.88589  -1.16548
 Alpha  occ. eigenvalues --   -0.46682  -0.45085  -0.45085  -0.44943  -0.26366
 Alpha virt. eigenvalues --    0.00327   0.00327   0.01464   0.02332   0.03631
 Alpha virt. eigenvalues --    0.03631   0.03696   0.03768   0.04172   0.04172
 Alpha virt. eigenvalues --    0.04199   0.05291   0.09137   0.10347   0.11566

 Mulliken charges and spin densities:
               1          2
     1  Ti   1.060732   1.970379
     2  O   -1.060732   0.029621
 Sum of Mulliken charges =  -0.00000   2.00000

 Dipole moment (field-independent basis, Debye):
    X=              0.0000    Y=              0.0000    Z=              4.1574  Tot=              4.1574
 Quadrupole moment (field-independent basis, Debye-Ang):
   XX=            -21.4276   YY=            -21.4276   ZZ=            -29.1716
   XY=              0.0000   XZ=              0.0000   YZ=              0.0000

 \\#P ROCCSD(T)=(maxcyc=150, Full, SaveAmplitudes, ReadAmplitudes)/Gen
 -0=-74.3089665\CCSD=-74.2906633\CCSD(T)=-74.3367541\RMSD=4.950e-09\PG=
 Normal termination of Gaussian 16 at Mon Mar 12 15:39:02 2018.
