 Gaussian 16, Revision A.03,
 Gaussian 16:  ES64L-G16RevA.03 25-Dec-2016

 ----------------------------------------------------------------------
 #P ROCCSD(T)=(maxcyc=150, Full)/Gen 5d 7f SCF=(maxcycles=300) MaxDisk=
 500GB Pop=Regular Pseudo=Read Guess=Read
 ----------------------------------------------------------------------

 --
 Sc
 --
 Symbolic Z-matrix:
 Charge =  0 Multiplicity = 2

                         Standard orientation:
 ---------------------------------------------------------------------
 Center     Atomic      Atomic             Coordinates (Angstroms)
 Number     Number       Type             X           Y           Z
 ---------------------------------------------------------------------
      1         21           0        0.000000    0.000000    0.000000
 ---------------------------------------------------------------------

 SCF Done:  E(ROHF) =  -46.2478545615     A.U. after   16 cycles
 E2 =    -0.3897546782D+00 EUMP2 =    -0.46637609239719D+02
 CCSD(T)
 CCSD(T)= -0.46672902901D+02

 Unable to determine electronic state:  an orbital has unidentified symmetry.
 Alpha  occ. eigenvalues --   -2.68909  -1.62316  -1.62316  -1.58469  -0.33978
 Alpha  occ. eigenvalues --   -0.21575
 Alpha virt. eigenvalues --    0.01175   0.01266   0.01266   0.02125   0.02886
 Alpha virt. eigenvalues --    0.02889   0.02889   0.02898   0.02919   0.04299
 Alpha virt. eigenvalues --    0.04420   0.04420   0.08091   0.08212   0.08212

 Mulliken charges and spin densities:
               1          2
     1  Sc   0.000000   1.000000
 Sum of Mulliken charges =   0.00000   1.00000

 Dipole moment (field-independent basis, Debye):
    X=              0.0000    Y=              0.0000    Z=              0.0000  Tot=              0.0000
 Quadrupole moment (field-independent basis, Debye-Ang):
   XX=            -23.3315   YY=            -23.3315   ZZ=            -23.0211
   XY=             -0.0000   XZ=              0.0000   YZ=             -0.0000

 1\1\GINC-C506-021\SP\ROCCSD(T)-Full\Gen\Sc1(2)\AANNABE\16-Feb-2018\0\\
 #P ROCCSD(T)=(maxcyc=150, Full)/Gen 5d 7f SCF=(maxcycles=300) MaxDisk=
 500GB Pop=Regular Pseudo=Read Guess=Read\\Sc\\0,2\Sc,0,0.,0.,0.\\Versi
 on=ES64L-G16RevA.03\HF=-46.2478546\MP2=-46.6376092\MP3=-46.657623\PUHF
 =-46.2478546\PMP2-0=-46.6376092\MP4SDQ=-46.6569954\CCSD=-46.6572376\CC
 SD(T)=-46.6729029\RMSD=1.068e-09\PG=OH [O(Sc1)]\\@

 Normal termination of Gaussian 16 at Fri Feb 16 11:48:30 2018.
