 Gaussian 16, Revision A.03,
 Gaussian 16:  ES64L-G16RevA.03 25-Dec-2016

 ----------------------------------------------------------------------
 #P ROHF/Gen 5d 7f SCF=(maxcycles=300, NoVarAcc, VShift=300) MaxDisk=50
 0GB Pop=Regular Pseudo=Read
 ----------------------------------------------------------------------

 --
 Sc
 --
 Symbolic Z-matrix:
 Charge =  0 Multiplicity = 2

                         Standard orientation:
 ---------------------------------------------------------------------
 Center     Atomic      Atomic             Coordinates (Angstroms)
 Number     Number       Type             X           Y           Z
 ---------------------------------------------------------------------
      1         21           0        0.000000    0.000000    0.000000
 ---------------------------------------------------------------------

 SCF Done:  E(ROHF) =  -46.2478545614     A.U. after   41 cycles

 Unable to determine electronic state:  an orbital has unidentified symmetry.
 Alpha  occ. eigenvalues --   -2.64992  -1.57536  -1.55421  -1.55421  -0.20992
 Alpha  occ. eigenvalues --   -0.03224
 Alpha virt. eigenvalues --    0.01184   0.01317   0.01317   0.02136   0.02888
 Alpha virt. eigenvalues --    0.02890   0.02890   0.02898   0.02924   0.04315
 Alpha virt. eigenvalues --    0.04520   0.04520   0.08190   0.08280   0.08280

 Mulliken charges and spin densities:
               1          2
     1  Sc  -0.000000   1.000000
 Sum of Mulliken charges =  -0.00000   1.00000

 Dipole moment (field-independent basis, Debye):
    X=              0.0000    Y=              0.0000    Z=              0.0000  Tot=              0.0000
 Quadrupole moment (field-independent basis, Debye-Ang):
   XX=            -23.3315   YY=            -23.0211   ZZ=            -23.3315
   XY=             -0.0000   XZ=              0.0000   YZ=              0.0000

 Normal termination of Gaussian 16 at Mon Feb 26 18:51:34 2018.
