 Gaussian 16, Revision A.03,
 Gaussian 16:  ES64L-G16RevA.03 25-Dec-2016

 ----------------------------------------------------------------------
 #P ROCCSD(T)=(maxcyc=150, Full, SaveAmplitudes, ReadAmplitudes)/Gen 5d
  7f SCF=(maxcycles=300) Integral(NoXCTest) MaxDisk=500GB Pop=Regular P
 seudo=Read Guess=Read
 ----------------------------------------------------------------------

 ---
 TiO
 ---
 Symbolic Z-matrix:
 Charge =  0 Multiplicity = 3

                         Standard orientation:
 ---------------------------------------------------------------------
 Center     Atomic      Atomic             Coordinates (Angstroms)
 Number     Number       Type             X           Y           Z
 ---------------------------------------------------------------------
      1         22           0        0.000000    0.000000    0.506667
      2          8           0        0.000000    0.000000   -1.393333
 ---------------------------------------------------------------------

 SCF Done:  E(ROHF) =  -73.2518027265     A.U. after   21 cycles
 E2 =    -0.7871634167D+00 EUMP2 =    -0.74038966143219D+02
 CCSD(T)
 CCSD(T)= -0.74073385449D+02

 Unable to determine electronic state:  an orbital has unidentified symmetry.
 Alpha  occ. eigenvalues --   -3.07140  -1.98080  -1.98080  -1.93489  -1.12317
 Alpha  occ. eigenvalues --   -0.52362  -0.41371  -0.37401  -0.37401  -0.29743
 Alpha virt. eigenvalues --   -0.00941  -0.00941  -0.00011   0.01841   0.02863
 Alpha virt. eigenvalues --    0.02863   0.03179   0.03504   0.03674   0.04398
 Alpha virt. eigenvalues --    0.04398   0.04775   0.06454   0.09752   0.09852

 Mulliken charges and spin densities:
               1          2
     1  Ti   1.014441   1.977375
     2  O   -1.014441   0.022625
 Sum of Mulliken charges =  -0.00000   2.00000

 Dipole moment (field-independent basis, Debye):
    X=              0.0000    Y=              0.0000    Z=              7.0413  Tot=              7.0413
 Quadrupole moment (field-independent basis, Debye-Ang):
   XX=            -21.7619   YY=            -21.7619   ZZ=            -30.6359
   XY=              0.0000   XZ=              0.0000   YZ=              0.0000

 \\#P ROCCSD(T)=(maxcyc=150, Full, SaveAmplitudes, ReadAmplitudes)/Gen
 -0=-74.0389661\CCSD=-74.0146018\CCSD(T)=-74.0733854\RMSD=5.872e-09\PG=
 Normal termination of Gaussian 16 at Sat Mar 10 03:35:03 2018.
