 Gaussian 16, Revision A.03,
 Gaussian 16:  ES64L-G16RevA.03 25-Dec-2016

 ----------------------------------------------------------------------
 #P ROCCSD(T)=(maxcyc=150, Full)/Gen 5d 7f SCF=(maxcycles=300, NoVarAcc
 , VShift=200) MaxDisk=100GB Pop=Regular Pseudo=Read Guess=Read IOp(5/1
 5=2)
 ----------------------------------------------------------------------

 --
 Mn
 --
 Symbolic Z-matrix:
 Charge =  0 Multiplicity = 6

                         Standard orientation:
 ---------------------------------------------------------------------
 Center     Atomic      Atomic             Coordinates (Angstroms)
 Number     Number       Type             X           Y           Z
 ---------------------------------------------------------------------
      1         25           0        0.000000    0.000000    0.000000
 ---------------------------------------------------------------------

 SCF Done:  E(ROHF) =  -103.668981798     A.U. after   13 cycles
 E2 =    -0.5658132604D+00 EUMP2 =    -0.10423479505852D+03
 CCSD(T)
 CCSD(T)= -0.10425639168D+03

 The electronic state is 6-A1G.
 Alpha  occ. eigenvalues --   -4.13777  -2.81057  -2.81057  -2.81057  -0.62964
 Alpha  occ. eigenvalues --   -0.62964  -0.62964  -0.62964  -0.62964  -0.26751
 Alpha virt. eigenvalues --    0.01815   0.01815   0.01815   0.02667   0.06531
 Alpha virt. eigenvalues --    0.06531   0.06531   0.08962   0.08962   0.08962
 Alpha virt. eigenvalues --    0.08962   0.08962   0.13930   0.24127   0.24127

 Mulliken charges and spin densities:
               1          2
     1  Mn  -0.000000   5.000000
 Sum of Mulliken charges =  -0.00000   5.00000

 Dipole moment (field-independent basis, Debye):
    X=              0.0000    Y=              0.0000    Z=              0.0000  Tot=              0.0000
 Quadrupole moment (field-independent basis, Debye-Ang):
   XX=            -18.8563   YY=            -18.8563   ZZ=            -18.8563
   XY=              0.0000   XZ=              0.0000   YZ=             -0.0000

 1\1\GINC-C506-021\SP\ROCCSD(T)-Full\Gen\Mn1(6)\AANNABE\30-Mar-2018\0\\
 #P ROCCSD(T)=(maxcyc=150, Full)/Gen 5d 7f SCF=(maxcycles=300, NoVarAcc
 , VShift=200) MaxDisk=100GB Pop=Regular Pseudo=Read Guess=Read IOp(5/1
 5=2)\\Mn\\0,6\Mn,0,0.,0.,0.\\Version=ES64L-G16RevA.03\State=6-A1G\HF=-
 103.6689818\MP2=-104.2347951\MP3=-104.2358533\PUHF=-103.6689818\PMP2-0
 =-104.2347951\MP4SDQ=-104.2389631\CCSD=-104.2390786\CCSD(T)=-104.25639
 17\RMSD=8.338e-09\PG=OH [O(Mn1)]\\@

 Normal termination of Gaussian 16 at Fri Mar 30 10:59:19 2018.
