 Gaussian 16, Revision A.03,
 Gaussian 16:  ES64L-G16RevA.03 25-Dec-2016

 ----------------------------------------------------------------------
 #P ROCCSD(T)=(maxcyc=150, Full, SaveAmplitudes, ReadAmplitudes)/Gen 5d
  7f SCF=(maxcycles=300) Integral(NoXCTest) MaxDisk=500GB Pop=Regular P
 seudo=Read Guess=Read
 ----------------------------------------------------------------------

 ---
 TiO
 ---
 Symbolic Z-matrix:
 Charge =  0 Multiplicity = 3

                         Standard orientation:
 ---------------------------------------------------------------------
 Center     Atomic      Atomic             Coordinates (Angstroms)
 Number     Number       Type             X           Y           Z
 ---------------------------------------------------------------------
      1         22           0        0.000000    0.000000    0.373333
      2          8           0        0.000000    0.000000   -1.026667
 ---------------------------------------------------------------------

 SCF Done:  E(ROHF) =  -73.3560939161     A.U. after   22 cycles
 E2 =    -0.7713617634D+00 EUMP2 =    -0.74127455679433D+02
 CCSD(T)
 CCSD(T)= -0.74150203743D+02

 Unable to determine electronic state:  an orbital has unidentified symmetry.
 Alpha  occ. eigenvalues --   -2.96768  -1.91901  -1.84895  -1.84895  -1.16377
 Alpha  occ. eigenvalues --   -0.53581  -0.53581  -0.50421  -0.39113  -0.23294
 Alpha virt. eigenvalues --    0.00961   0.00961   0.02020   0.02303   0.03776
 Alpha virt. eigenvalues --    0.03831   0.03857   0.03857   0.03951   0.04399
 Alpha virt. eigenvalues --    0.04399   0.06767   0.10294   0.10447   0.11389

 Mulliken charges and spin densities:
               1          2
     1  Ti   0.940177   1.971220
     2  O   -0.940177   0.028780
 Sum of Mulliken charges =  -0.00000   2.00000

 Dipole moment (field-independent basis, Debye):
    X=              0.0000    Y=              0.0000    Z=              1.9162  Tot=              1.9162
 Quadrupole moment (field-independent basis, Debye-Ang):
   XX=            -21.6911   YY=            -21.6911   ZZ=            -27.7098
   XY=              0.0000   XZ=              0.0000   YZ=              0.0000

 \\#P ROCCSD(T)=(maxcyc=150, Full, SaveAmplitudes, ReadAmplitudes)/Gen
 -0=-74.1274557\CCSD=-74.1107627\CCSD(T)=-74.1502037\RMSD=2.533e-10\PG=
 Normal termination of Gaussian 16 at Sat Mar 10 19:32:58 2018.
