 Gaussian 16, Revision A.03,
 Gaussian 16:  ES64L-G16RevA.03 25-Dec-2016

 ----------------------------------------------------------------------
 #P ROCCSD(T)=(maxcyc=150, Full)/Gen 5d 7f SCF=(maxcycles=300) Integral
 (NoXCTest) MaxDisk=500GB Pop=Regular Pseudo=Read Guess=Read
 ----------------------------------------------------------------------

 ---
 CrH
 ---
 Symbolic Z-matrix:
 Charge =  0 Multiplicity = 6

                         Standard orientation:
 ---------------------------------------------------------------------
 Center     Atomic      Atomic             Coordinates (Angstroms)
 Number     Number       Type             X           Y           Z
 ---------------------------------------------------------------------
      1         24           0        0.000000    0.000000    0.072000
      2          1           0        0.000000    0.000000   -1.728000
 ---------------------------------------------------------------------

 SCF Done:  E(ROHF) =  -86.6943898703     A.U. after   22 cycles
 E2 =    -0.5512254147D+00 EUMP2 =    -0.87245615285022D+02
 CCSD(T)
 CCSD(T)= -0.87294781166D+02

 The electronic state is 6-SG.
 Alpha  occ. eigenvalues --   -3.73362  -2.48869  -2.48869  -2.44079  -0.55759
 Alpha  occ. eigenvalues --   -0.55759  -0.52461  -0.52461  -0.39625  -0.26318
 Alpha virt. eigenvalues --    0.01159   0.01159   0.01937   0.02407   0.04570
 Alpha virt. eigenvalues --    0.04931   0.04931   0.05317   0.05317   0.05657
 Alpha virt. eigenvalues --    0.05657   0.06683   0.09594   0.12400   0.16546

 Mulliken charges and spin densities:
               1          2
     1  Cr   0.323979   4.979662
     2  H   -0.323979   0.020338
 Sum of Mulliken charges =  -0.00000   5.00000

 Dipole moment (field-independent basis, Debye):
    X=              0.0000    Y=              0.0000    Z=              2.4288  Tot=              2.4288
 Quadrupole moment (field-independent basis, Debye-Ang):
   XX=            -17.1002   YY=            -17.1002   ZZ=            -25.0614
   XY=              0.0000   XZ=              0.0000   YZ=              0.0000

 \\#P ROCCSD(T)=(maxcyc=150, Full)/Gen 5d 7f SCF=(maxcycles=300) Integr
 7.2456153\MP4SDQ=-87.2591554\CCSD=-87.2779027\CCSD(T)=-87.2947812\RMSD
 Normal termination of Gaussian 16 at Tue Feb 13 09:41:53 2018.
