 Gaussian 16, Revision A.03,
 Gaussian 16:  ES64L-G16RevA.03 25-Dec-2016

 ----------------------------------------------------------------------
 #P ROCCSD(T)=(maxcyc=150, Full, SaveAmplitudes, ReadAmplitudes)/Gen 5d
  7f SCF=(maxcycles=300) Integral(NoXCTest) MaxDisk=500GB Pop=Regular P
 seudo=Read Guess=Read
 ----------------------------------------------------------------------

 ---
 CrH
 ---
 Symbolic Z-matrix:
 Charge =  0 Multiplicity = 6

                         Standard orientation:
 ---------------------------------------------------------------------
 Center     Atomic      Atomic             Coordinates (Angstroms)
 Number     Number       Type             X           Y           Z
 ---------------------------------------------------------------------
      1         24           0        0.000000    0.000000    0.080000
      2          1           0        0.000000    0.000000   -1.920000
 ---------------------------------------------------------------------

 SCF Done:  E(ROHF) =  -86.8728376845     A.U. after   22 cycles
 E2 =    -0.5489734632D+00 EUMP2 =    -0.87421811147652D+02
 CCSD(T)
 CCSD(T)= -0.87473974314D+02

 The electronic state is 6-SG.
 Alpha  occ. eigenvalues --   -3.77883  -2.47797  -2.47797  -2.42767  -0.58179
 Alpha  occ. eigenvalues --   -0.58179  -0.54621  -0.54621  -0.37876  -0.26844
 Alpha virt. eigenvalues --    0.01004   0.01004   0.01839   0.02507   0.04533
 Alpha virt. eigenvalues --    0.04779   0.04779   0.05268   0.05268   0.05657
 Alpha virt. eigenvalues --    0.05657   0.06708   0.09653   0.12184   0.15952

 Mulliken charges and spin densities:
               1          2
     1  Cr   0.336520   4.974087
     2  H   -0.336520   0.025913
 Sum of Mulliken charges =  -0.00000   5.00000

 Dipole moment (field-independent basis, Debye):
    X=              0.0000    Y=              0.0000    Z=              2.9896  Tot=              2.9896
 Quadrupole moment (field-independent basis, Debye-Ang):
   XX=            -17.1466   YY=            -17.1466   ZZ=            -26.8390
   XY=              0.0000   XZ=              0.0000   YZ=              0.0000

 \\#P ROCCSD(T)=(maxcyc=150, Full, SaveAmplitudes, ReadAmplitudes)/Gen
 28377\PMP2-0=-87.4218111\CCSD=-87.4578444\CCSD(T)=-87.4739743\RMSD=1.7
 Normal termination of Gaussian 16 at Mon Feb 26 18:44:05 2018.
