 Gaussian 16, Revision A.03,
 Gaussian 16:  ES64L-G16RevA.03 25-Dec-2016

 ----------------------------------------------------------------------
 #P ROCCSD(T)=(MaxCyc=150, Full)/Gen SCF=(maxcycle=400) Pseudo=Read Int
 egral(NoXCTest) Pop=Regular MaxDisk=500GB Guess=Read IOp(5/15=2)
 ----------------------------------------------------------------------

 ---
 CoO
 ---
 Symbolic Z-matrix:
 Charge =  0 Multiplicity = 4

                         Standard orientation:
 ---------------------------------------------------------------------
 Center     Atomic      Atomic             Coordinates (Angstroms)
 Number     Number       Type             X           Y           Z
 ---------------------------------------------------------------------
      1         27           0        0.000000    0.000000    0.274286
      2          8           0        0.000000    0.000000   -0.925714
 ---------------------------------------------------------------------

 SCF Done:  E(ROHF) =  -160.315378185     A.U. after   26 cycles
 E2 =    -0.1162251021D+01 EUMP2 =    -0.16147762920545D+03
 CCSD(T)
 CCSD(T)= -0.16145756492D+03

 Unable to determine electronic state:  partially filled degenerate orbitals.
 Alpha  occ. eigenvalues --   -4.77613  -3.33220  -3.26840  -3.26840  -1.36988
 Alpha  occ. eigenvalues --   -0.91514  -0.91514  -0.78254  -0.76380  -0.73127
 Alpha  occ. eigenvalues --   -0.50466  -0.50466  -0.32586
 Alpha virt. eigenvalues --    0.01416   0.02980   0.02980   0.03329   0.05690
 Alpha virt. eigenvalues --    0.09527   0.09527   0.11165   0.11298   0.11298
 Alpha virt. eigenvalues --    0.11321   0.11346   0.12646   0.18191   0.25880

 Mulliken charges and spin densities:
               1          2
     1  Co   0.593155   2.615643
     2  O   -0.593155   0.384357
 Sum of Mulliken charges =  -0.00000   3.00000

 Dipole moment (field-independent basis, Debye):
    X=              0.0000    Y=              0.0000    Z=              1.8880  Tot=              1.8880
 Quadrupole moment (field-independent basis, Debye-Ang):
   XX=            -20.1948   YY=            -20.1948   ZZ=            -20.2244
   XY=              0.0000   XZ=              0.0000   YZ=              0.0000

 \\#P ROCCSD(T)=(MaxCyc=150, Full)/Gen SCF=(maxcycle=400) Pseudo=Read I
 4776292\MP4SDQ=-161.4354554\CCSD=-161.4084435\CCSD(T)=-161.4575649\RMS
 Normal termination of Gaussian 16 at Sat Mar 31 14:33:33 2018.
