 Gaussian 16, Revision A.03,
 Gaussian 16:  ES64L-G16RevA.03 25-Dec-2016

 ----------------------------------------------------------------------
 #P ROCCSD(T)=(MaxCyc=150, Full)/Gen SCF=(maxcycle=400) Pseudo=Read Int
 egral(NoXCTest) Pop=Regular MaxDisk=500GB Guess=Read IOp(5/15=2)
 ----------------------------------------------------------------------

 ---
 CoO
 ---
 Symbolic Z-matrix:
 Charge =  0 Multiplicity = 4

                         Standard orientation:
 ---------------------------------------------------------------------
 Center     Atomic      Atomic             Coordinates (Angstroms)
 Number     Number       Type             X           Y           Z
 ---------------------------------------------------------------------
      1         27           0        0.000000    0.000000    0.274286
      2          8           0        0.000000    0.000000   -0.925714
 ---------------------------------------------------------------------

 SCF Done:  E(ROHF) =  -160.319560920     A.U. after   22 cycles
 E2 =    -0.1214672921D+01 EUMP2 =    -0.16153423384051D+03
 CCSD(T)
 CCSD(T)= -0.16151194048D+03

 Unable to determine electronic state:  partially filled degenerate orbitals.
 Alpha  occ. eigenvalues --   -4.77560  -3.33174  -3.26816  -3.26816  -1.36938
 Alpha  occ. eigenvalues --   -0.91532  -0.91532  -0.78262  -0.76380  -0.73137
 Alpha  occ. eigenvalues --   -0.50484  -0.50484  -0.32568
 Alpha virt. eigenvalues --    0.01355   0.02711   0.02711   0.03053   0.05318
 Alpha virt. eigenvalues --    0.07146   0.07146   0.07404   0.07411   0.07534
 Alpha virt. eigenvalues --    0.09170   0.09170   0.11208   0.17058   0.21393

 Mulliken charges and spin densities:
               1          2
     1  Co   0.615724   2.622609
     2  O   -0.615724   0.377391
 Sum of Mulliken charges =  -0.00000   3.00000

 Dipole moment (field-independent basis, Debye):
    X=              0.0000    Y=              0.0000    Z=              1.8760  Tot=              1.8760
 Quadrupole moment (field-independent basis, Debye-Ang):
   XX=            -20.1976   YY=            -20.1976   ZZ=            -20.2105
   XY=              0.0000   XZ=              0.0000   YZ=              0.0000

 \\#P ROCCSD(T)=(MaxCyc=150, Full)/Gen SCF=(maxcycle=400) Pseudo=Read I
 .5342338\MP4SDQ=-161.4869112\CCSD=-161.4605537\CCSD(T)=-161.5119405\RM
 Normal termination of Gaussian 16 at Sat Mar 31 16:38:35 2018.
