 Gaussian 16, Revision A.03,
 Gaussian 16:  ES64L-G16RevA.03 25-Dec-2016

 ----------------------------------------------------------------------
 #P ROCCSD(T)=(maxcyc=150, Full, SaveAmplitudes, ReadAmplitudes)/Gen 5d
  7f SCF=(maxcycles=300) Integral(NoXCTest) MaxDisk=500GB Pop=Regular P
 seudo=Read Guess=Read
 ----------------------------------------------------------------------

 ---
 CrH
 ---
 Symbolic Z-matrix:
 Charge =  0 Multiplicity = 6

                         Standard orientation:
 ---------------------------------------------------------------------
 Center     Atomic      Atomic             Coordinates (Angstroms)
 Number     Number       Type             X           Y           Z
 ---------------------------------------------------------------------
      1         24           0        0.000000    0.000000    0.072000
      2          1           0        0.000000    0.000000   -1.728000
 ---------------------------------------------------------------------

 SCF Done:  E(ROHF) =  -86.3750055583     A.U. after   23 cycles
 E2 =    -0.5412002624D+00 EUMP2 =    -0.86916205820764D+02
 CCSD(T)
 CCSD(T)= -0.86957163183D+02

 The electronic state is 6-SG.
 Alpha  occ. eigenvalues --   -3.86156  -2.58168  -2.58168  -2.53489  -0.51165
 Alpha  occ. eigenvalues --   -0.51165  -0.48215  -0.48215  -0.40551  -0.27166
 Alpha virt. eigenvalues --    0.01124   0.01124   0.01940   0.02435   0.04608
 Alpha virt. eigenvalues --    0.04814   0.04814   0.05338   0.05338   0.05648
 Alpha virt. eigenvalues --    0.05648   0.06876   0.09507   0.12210   0.16852

 Mulliken charges and spin densities:
               1          2
     1  Cr   0.320826   4.979506
     2  H   -0.320826   0.020494
 Sum of Mulliken charges =  -0.00000   5.00000

 Dipole moment (field-independent basis, Debye):
    X=              0.0000    Y=              0.0000    Z=              2.2821  Tot=              2.2821
 Quadrupole moment (field-independent basis, Debye-Ang):
   XX=            -17.2751   YY=            -17.2751   ZZ=            -25.0494
   XY=              0.0000   XZ=              0.0000   YZ=              0.0000

 \\#P ROCCSD(T)=(maxcyc=150, Full, SaveAmplitudes, ReadAmplitudes)/Gen
 750056\PMP2-0=-86.9162058\CCSD=-86.9399558\CCSD(T)=-86.9571632\RMSD=3.
 Normal termination of Gaussian 16 at Mon Feb 26 13:40:41 2018.
