 Gaussian 16, Revision A.03,
 Gaussian 16:  ES64L-G16RevA.03 25-Dec-2016

 ----------------------------------------------------------------------
 #P ROCCSD(T)=(maxcyc=150, Full)/Gen 5d 7f SCF=(maxcycles=300) Integral
 (NoXCTest) MaxDisk=500GB Pop=Regular Pseudo=Read
 ----------------------------------------------------------------------

 ---
 CrH
 ---
 Symbolic Z-matrix:
 Charge =  0 Multiplicity = 6

                         Standard orientation:
 ---------------------------------------------------------------------
 Center     Atomic      Atomic             Coordinates (Angstroms)
 Number     Number       Type             X           Y           Z
 ---------------------------------------------------------------------
      1         24           0        0.000000    0.000000    0.044000
      2          1           0        0.000000    0.000000   -1.056000
 ---------------------------------------------------------------------

 SCF Done:  E(ROHF) =  -86.5341030554     A.U. after   34 cycles
 E2 =    -0.5942985189D+00 EUMP2 =    -0.87128401574303D+02
 CCSD(T)
 CCSD(T)= -0.87144427725D+02

 The electronic state is 6-SG.
 Alpha  occ. eigenvalues --   -3.61767  -2.37181  -2.36681  -2.36681  -0.48197
 Alpha  occ. eigenvalues --   -0.43630  -0.43630  -0.40756  -0.40756  -0.24994
 Alpha virt. eigenvalues --    0.01689   0.01862   0.01862   0.02439   0.06267
 Alpha virt. eigenvalues --    0.06459   0.06459   0.07927   0.07927   0.07958
 Alpha virt. eigenvalues --    0.08109   0.08109   0.09865   0.20200   0.22573

 Mulliken charges and spin densities:
               1          2
     1  Cr   0.540061   5.009753
     2  H   -0.540061  -0.009753
 Sum of Mulliken charges =  -0.00000   5.00000

 Dipole moment (field-independent basis, Debye):
    X=              0.0000    Y=              0.0000    Z=              2.1131  Tot=              2.1131
 Quadrupole moment (field-independent basis, Debye-Ang):
   XX=            -16.5182   YY=            -16.5182   ZZ=            -17.9408
   XY=              0.0000   XZ=              0.0000   YZ=              0.0000

 \\#P ROCCSD(T)=(maxcyc=150, Full)/Gen 5d 7f SCF=(maxcycles=300) Integr
 P4SDQ=-87.1242172\CCSD=-87.1236198\CCSD(T)=-87.1444277\RMSD=2.617e-09\
 Normal termination of Gaussian 16 at Mon Feb 12 17:47:16 2018.
