 Gaussian 16, Revision A.03,
 Gaussian 16:  ES64L-G16RevA.03 25-Dec-2016

 ----------------------------------------------------------------------
 #P ROCCSD(T)=(MaxCyc=150, FrzINGC)/Gen SCF=(maxcycle=400, vshift=200)
 Integral(DKHSO, NoXCTest) Pop=Regular MaxDisk=500GB Guess=Read IOp(5/1
 5=2)
 ----------------------------------------------------------------------

 ---
 CoH
 ---
 Symbolic Z-matrix:
 Charge =  0 Multiplicity = 3

                         Standard orientation:
 ---------------------------------------------------------------------
 Center     Atomic      Atomic             Coordinates (Angstroms)
 Number     Number       Type             X           Y           Z
 ---------------------------------------------------------------------
      1         27           0        0.000000    0.000000    0.060714
      2          1           0        0.000000    0.000000   -1.639286
 ---------------------------------------------------------------------

 SCF Done:  E(ROHF) =  -1392.35980807     A.U. after   86 cycles
 E2 =    -0.8474244898D+00 EUMP2 =    -0.13932072325637D+04
 CCSD(T)
 CCSD(T)= -0.13931754554D+04

 Unable to determine electronic state:  partially filled degenerate orbitals.
 Alpha  occ. eigenvalues -- -285.58891 -35.27925 -30.05039 -30.05039 -30.04782
 Alpha  occ. eigenvalues --   -4.49659  -2.93496  -2.93496  -2.93409  -0.49261
 Alpha  occ. eigenvalues --   -0.48774  -0.44514  -0.44108  -0.44108  -0.32490
 Alpha virt. eigenvalues --   -0.00345   0.02623   0.02623   0.03467   0.04602
 Alpha virt. eigenvalues --    0.09363   0.09363   0.10126   0.11227   0.11271
 Alpha virt. eigenvalues --    0.11503   0.11503   0.11658   0.18642   0.24440

 Mulliken charges and spin densities:
               1          2
     1  Co   0.379225   1.987676
     2  H   -0.379225   0.012324
 Sum of Mulliken charges =  -0.00000   2.00000

 Dipole moment (field-independent basis, Debye):
    X=              0.0000    Y=              0.0000    Z=              4.7041  Tot=              4.7041
 Quadrupole moment (field-independent basis, Debye-Ang):
   XX=            -14.2442   YY=            -14.2442   ZZ=            -19.1210
   XY=              0.0000   XZ=              0.0000   YZ=              0.0000

 \#P ROCCSD(T)=(MaxCyc=150, FrzINGC)/Gen SCF=(maxcycle=400, vshift=200)
 Normal termination of Gaussian 16 at Sat Apr 21 22:25:10 2018.
