 Gaussian 16, Revision A.03,
 Gaussian 16:  ES64L-G16RevA.03 25-Dec-2016

 ----------------------------------------------------------------------
 #P ROCCSD(T)=(MaxCyc=150, FrzINGC)/Gen SCF=(maxcycle=400, vshift=200)
 Integral(DKHSO, NoXCTest) Pop=Regular MaxDisk=500GB Guess=Read IOp(5/1
 5=2)
 ----------------------------------------------------------------------

 ---
 CoH
 ---
 Symbolic Z-matrix:
 Charge =  0 Multiplicity = 3

                         Standard orientation:
 ---------------------------------------------------------------------
 Center     Atomic      Atomic             Coordinates (Angstroms)
 Number     Number       Type             X           Y           Z
 ---------------------------------------------------------------------
      1         27           0        0.000000    0.000000    0.060714
      2          1           0        0.000000    0.000000   -1.639286
 ---------------------------------------------------------------------

 SCF Done:  E(ROHF) =  -1392.36184074     A.U. after   37 cycles
 E2 =    -0.8873165934D+00 EUMP2 =    -0.13932491573359D+04
 CCSD(T)
 CCSD(T)= -0.13932158802D+04

 Unable to determine electronic state:  partially filled degenerate orbitals.
 Alpha  occ. eigenvalues -- -285.58886 -35.27904 -30.05016 -30.05016 -30.04759
 Alpha  occ. eigenvalues --   -4.49650  -2.93487  -2.93487  -2.93400  -0.49266
 Alpha  occ. eigenvalues --   -0.48780  -0.44521  -0.44119  -0.44119  -0.32490
 Alpha virt. eigenvalues --   -0.00361   0.02371   0.02371   0.03136   0.04319
 Alpha virt. eigenvalues --    0.06985   0.07290   0.07304   0.07557   0.07557
 Alpha virt. eigenvalues --    0.08558   0.08558   0.10200   0.17701   0.19694

 Mulliken charges and spin densities:
               1          2
     1  Co   0.354463   1.995846
     2  H   -0.354463   0.004154
 Sum of Mulliken charges =  -0.00000   2.00000

 Dipole moment (field-independent basis, Debye):
    X=              0.0000    Y=              0.0000    Z=              4.6992  Tot=              4.6992
 Quadrupole moment (field-independent basis, Debye-Ang):
   XX=            -14.2312   YY=            -14.2312   ZZ=            -19.1283
   XY=              0.0000   XZ=              0.0000   YZ=              0.0000

 \#P ROCCSD(T)=(MaxCyc=150, FrzINGC)/Gen SCF=(maxcycle=400, vshift=200)
 7\PMP2-0=-1393.2491573\MP4SDQ=-1393.2140742\CCSD=-1393.185143\CCSD(T)=
 Normal termination of Gaussian 16 at Sat Apr 21 22:39:23 2018.
