 Gaussian 16, Revision A.03,
 Gaussian 16:  ES64L-G16RevA.03 25-Dec-2016

 ----------------------------------------------------------------------
 #P ROCCSD(T)=(maxcyc=150, Full)/Gen 5d 7f SCF=(maxcycles=300) Integral
 (NoXCTest) MaxDisk=500GB Pop=Regular Pseudo=Read IOp(5/15=2) Guess=Rea
 d
 ----------------------------------------------------------------------

 ---
 ScH
 ---
 Symbolic Z-matrix:
 Charge =  0 Multiplicity = 1

                         Standard orientation:
 ---------------------------------------------------------------------
 Center     Atomic      Atomic             Coordinates (Angstroms)
 Number     Number       Type             X           Y           Z
 ---------------------------------------------------------------------
      1         21           0        0.000000    0.000000    0.050000
      2          1           0        0.000000    0.000000   -1.050000
 ---------------------------------------------------------------------

 SCF Done:  E(ROHF) =  -46.6159410392     A.U. after    9 cycles
 E2 =    -0.4422755635D+00 EUMP2 =    -0.47058216602714D+02
 CCSD(T)
 CCSD(T)= -0.47092903544D+02

 The electronic state is 1-SG.
 Alpha  occ. eigenvalues --   -2.64458  -1.64441  -1.57425  -1.57425  -0.47307
 Alpha  occ. eigenvalues --   -0.21424
 Alpha virt. eigenvalues --    0.01291   0.01350   0.01350   0.01671   0.02605
 Alpha virt. eigenvalues --    0.02605   0.02621   0.02645   0.02645   0.04050
 Alpha virt. eigenvalues --    0.04463   0.04463   0.07053   0.07442   0.07442

 Mulliken charges and spin densities:
               1          2
     1  Sc   0.232366   0.000000
     2  H   -0.232366   0.000000
 Sum of Mulliken charges =  -0.00000   0.00000

 Dipole moment (field-independent basis, Debye):
    X=              0.0000    Y=              0.0000    Z=              0.9580  Tot=              0.9580
 Quadrupole moment (field-independent basis, Debye-Ang):
   XX=            -23.4756   YY=            -23.4756   ZZ=            -21.9899
   XY=              0.0000   XZ=              0.0000   YZ=              0.0000

 P ROCCSD(T)=(maxcyc=150, Full)/Gen 5d 7f SCF=(maxcycles=300) Integral(
 P2-0=-47.0582166\MP4SDQ=-47.074637\CCSD=-47.0743427\CCSD(T)=-47.092903
 Normal termination of Gaussian 16 at Tue Feb 13 19:00:11 2018.
