 Gaussian 16, Revision A.03,
 Gaussian 16:  ES64L-G16RevA.03 25-Dec-2016

 ----------------------------------------------------------------------
 #P ROCCSD(T)=(maxcyc=150, Full, SaveAmplitudes, ReadAmplitudes)/Gen 5d
  7f SCF=(maxcycles=300) Integral(NoXCTest) MaxDisk=500GB Pop=Regular P
 seudo=Read Guess=Read
 ----------------------------------------------------------------------

 ---
 CrO
 ---
 Symbolic Z-matrix:
 Charge =  0 Multiplicity = 5

                         Standard orientation:
 ---------------------------------------------------------------------
 Center     Atomic      Atomic             Coordinates (Angstroms)
 Number     Number       Type             X           Y           Z
 ---------------------------------------------------------------------
      1         24           0        0.000000    0.000000    0.425000
      2          8           0        0.000000    0.000000   -1.275000
 ---------------------------------------------------------------------

 SCF Done:  E(ROHF) =  -102.018287829     A.U. after   26 cycles
 E2 =    -0.9198979606D+00 EUMP2 =    -0.10293818578922D+03
 CCSD(T)
 CCSD(T)= -0.10298105895D+03

 Unable to determine electronic state:  an orbital has unidentified symmetry.
 Alpha  occ. eigenvalues --   -3.68401  -2.46409  -2.41676  -2.40611  -1.10158
 Alpha  occ. eigenvalues --   -0.55773  -0.55719  -0.53931  -0.49534  -0.36556
 Alpha  occ. eigenvalues --   -0.33781  -0.32927
 Alpha virt. eigenvalues --   -0.03565   0.00749   0.01367   0.01680   0.03129
 Alpha virt. eigenvalues --    0.04557   0.05254   0.05254   0.05671   0.05975
 Alpha virt. eigenvalues --    0.06096   0.06635   0.11167   0.11370   0.13643

 Mulliken charges and spin densities:
               1          2
     1  Cr   1.138777   3.923251
     2  O   -1.138777   0.076749
 Sum of Mulliken charges =   0.00000   4.00000

 Dipole moment (field-independent basis, Debye):
    X=              0.0000    Y=              0.0000    Z=              8.9085  Tot=              8.9085
 Quadrupole moment (field-independent basis, Debye-Ang):
   XX=            -19.6837   YY=            -18.6276   ZZ=            -23.0072
   XY=              0.0000   XZ=              0.0000   YZ=              0.0000

 \\#P ROCCSD(T)=(maxcyc=150, Full, SaveAmplitudes, ReadAmplitudes)/Gen
 MP2-0=-102.9381858\CCSD=-102.928252\CCSD(T)=-102.981059\RMSD=7.651e-09
 Normal termination of Gaussian 16 at Tue Mar 13 08:13:30 2018.
