 Gaussian 16, Revision A.03,
 Gaussian 16:  ES64L-G16RevA.03 25-Dec-2016

 ----------------------------------------------------------------------
 #P ROCCSD(T)=(maxcyc=150, Window=(7,0), SaveAmplitudes, ReadAmplitudes
 )/Gen 5d 7f SCF=(maxcycles=300) Integral(NoXCTest, DKHSO) MaxDisk=500G
 B Pop=Regular Guess=Read IOp(5/15=2)
 ----------------------------------------------------------------------

 ---
 TiO
 ---
 Symbolic Z-matrix:
 Charge =  0 Multiplicity = 3

                         Standard orientation:
 ---------------------------------------------------------------------
 Center     Atomic      Atomic             Coordinates (Angstroms)
 Number     Number       Type             X           Y           Z
 ---------------------------------------------------------------------
      1         22           0        0.000000    0.000000    0.453333
      2          8           0        0.000000    0.000000   -1.246667
 ---------------------------------------------------------------------

 SCF Done:  E(ROHF) =  -927.702511053     A.U. after   20 cycles
 E2 =    -0.7224648141D+00 EUMP2 =    -0.92842497586687D+03
 CCSD(T)
 CCSD(T)= -0.92845404306D+03

 Unable to determine electronic state:  an orbital has unidentified symmetry.
 Alpha  occ. eigenvalues -- -184.48059 -21.75089 -20.50047 -17.91698 -17.91698
 Alpha  occ. eigenvalues --  -17.91566  -3.01196  -1.92111  -1.92111  -1.89641
 Alpha  occ. eigenvalues --   -1.14163  -0.47765  -0.45067  -0.42030  -0.42030
 Alpha  occ. eigenvalues --   -0.27599
 Alpha virt. eigenvalues --   -0.00016  -0.00016   0.01254   0.02440   0.03853
 Alpha virt. eigenvalues --    0.03853   0.04545   0.04838   0.05129   0.05897
 Alpha virt. eigenvalues --    0.05897   0.06390   0.09669   0.11024   0.13136

 Mulliken charges and spin densities:
               1          2
     1  Ti   0.940741   1.992751
     2  O   -0.940741   0.007249
 Sum of Mulliken charges =  -0.00000   2.00000

 Dipole moment (field-independent basis, Debye):
    X=              0.0000    Y=              0.0000    Z=              5.1362  Tot=              5.1362
 Quadrupole moment (field-independent basis, Debye-Ang):
   XX=            -21.9580   YY=            -21.9580   ZZ=            -30.2257
   XY=              0.0000   XZ=              0.0000   YZ=              0.0000

 1\1\GINC-C478-073\SP\ROCCSD(T)-RW\Gen\O1Ti1(3)\AANNABE\14-Mar-2018\0\\
 #P ROCCSD(T)=(maxcyc=150, Window=(7,0), SaveAmplitudes, ReadAmplitudes
 )/Gen 5d 7f SCF=(maxcycles=300) Integral(NoXCTest, DKHSO) MaxDisk=500G
 B Pop=Regular Guess=Read IOp(5/15=2)\\TiO\\0,3\Ti,0,0.,0.,0.\O,0,0.,0.
 ,1.7\\Version=ES64L-G16RevA.03\HF=-927.7025111\MP2=-928.4249759\MP3=-9
 28.3780323\PUHF=-927.7025111\PMP2-0=-928.4249759\MP4SDQ=-928.4417535\C
 CSD=-928.4075924\CCSD(T)=-928.4540431\RMSD=1.933e-09\PG=C*V [C*(O1Ti1)
 ]\\@

 Normal termination of Gaussian 16 at Wed Mar 14 14:20:49 2018.
