 Gaussian 16, Revision A.03,
 Gaussian 16:  ES64L-G16RevA.03 25-Dec-2016

 ----------------------------------------------------------------------
 #P ROCCSD(T)=(maxcyc=150, Full, SaveAmplitudes, ReadAmplitudes)/Gen 5d
  7f SCF=(maxcycles=300) Integral(NoXCTest) MaxDisk=500GB Pop=Regular P
 seudo=Read Guess=Read
 ----------------------------------------------------------------------

 ---
 TiO
 ---
 Symbolic Z-matrix:
 Charge =  0 Multiplicity = 3

                         Standard orientation:
 ---------------------------------------------------------------------
 Center     Atomic      Atomic             Coordinates (Angstroms)
 Number     Number       Type             X           Y           Z
 ---------------------------------------------------------------------
      1         22           0        0.000000    0.000000    0.506667
      2          8           0        0.000000    0.000000   -1.393333
 ---------------------------------------------------------------------

 SCF Done:  E(ROHF) =  -73.4750248479     A.U. after   21 cycles
 E2 =    -0.7882258730D+00 EUMP2 =    -0.74263250720852D+02
 CCSD(T)
 CCSD(T)= -0.74298398852D+02

 Unable to determine electronic state:  an orbital has unidentified symmetry.
 Alpha  occ. eigenvalues --   -3.10937  -1.97401  -1.97401  -1.92827  -1.12181
 Alpha  occ. eigenvalues --   -0.52785  -0.41239  -0.37260  -0.37260  -0.29985
 Alpha virt. eigenvalues --   -0.00903  -0.00903  -0.00053   0.01851   0.02870
 Alpha virt. eigenvalues --    0.02870   0.03164   0.03513   0.03675   0.04407
 Alpha virt. eigenvalues --    0.04407   0.04788   0.06574   0.09711   0.09935

 Mulliken charges and spin densities:
               1          2
     1  Ti   1.010002   1.978822
     2  O   -1.010002   0.021178
 Sum of Mulliken charges =  -0.00000   2.00000

 Dipole moment (field-independent basis, Debye):
    X=              0.0000    Y=              0.0000    Z=              7.1472  Tot=              7.1472
 Quadrupole moment (field-independent basis, Debye-Ang):
   XX=            -21.6451   YY=            -21.6451   ZZ=            -30.3633
   XY=              0.0000   XZ=              0.0000   YZ=              0.0000

 \\#P ROCCSD(T)=(maxcyc=150, Full, SaveAmplitudes, ReadAmplitudes)/Gen
 -0=-74.2632507\CCSD=-74.2393949\CCSD(T)=-74.2983989\RMSD=1.319e-09\PG=
 Normal termination of Gaussian 16 at Tue Mar 13 02:36:39 2018.
