 Gaussian 16, Revision A.03,
 Gaussian 16:  ES64L-G16RevA.03 25-Dec-2016

 ----------------------------------------------------------------------
 #P ROCCSD(T)=(MaxCyc=150, Full)/Gen SCF=(maxcycle=400) Pseudo=Read Int
 egral(NoXCTest) Pop=Regular MaxDisk=500GB Guess=Read IOp(5/15=2)
 ----------------------------------------------------------------------

 ---
 CuO
 ---
 Symbolic Z-matrix:
 Charge =  0 Multiplicity = 2

                         Standard orientation:
 ---------------------------------------------------------------------
 Center     Atomic      Atomic             Coordinates (Angstroms)
 Number     Number       Type             X           Y           Z
 ---------------------------------------------------------------------
      1         29           0        0.000000    0.000000    0.281081
      2          8           0        0.000000    0.000000   -1.018919
 ---------------------------------------------------------------------

 SCF Done:  E(ROHF) =  -211.465975511     A.U. after   36 cycles
 E2 =    -0.1367712927D+01 EUMP2 =    -0.21283368843823D+03
 CCSD(T)
 CCSD(T)= -0.21274887530D+03

 Unable to determine electronic state:  an orbital has unidentified symmetry.
 Alpha  occ. eigenvalues --   -5.40352  -3.55094  -3.50895  -3.49071  -1.35360
 Alpha  occ. eigenvalues --   -0.76966  -0.73542  -0.67702  -0.61835  -0.61797
 Alpha  occ. eigenvalues --   -0.49651  -0.44569  -0.35952
 Alpha virt. eigenvalues --    0.00270   0.03106   0.03274   0.03846   0.05512
 Alpha virt. eigenvalues --    0.10849   0.11378   0.13532   0.19128   0.20039
 Alpha virt. eigenvalues --    0.20055   0.21020   0.21804   0.21805   0.25911

 Mulliken charges and spin densities:
               1          2
     1  Cu   0.852897   0.165937
     2  O   -0.852897   0.834063
 Sum of Mulliken charges =  -0.00000   1.00000

 Dipole moment (field-independent basis, Debye):
    X=              0.0000    Y=              0.0000    Z=              3.8067  Tot=              3.8067
 Quadrupole moment (field-independent basis, Debye-Ang):
   XX=            -17.1097   YY=            -18.5282   ZZ=            -18.1376
   XY=              0.0000   XZ=              0.0000   YZ=              0.0000

 \\#P ROCCSD(T)=(MaxCyc=150, Full)/Gen SCF=(maxcycle=400) Pseudo=Read I
 .8336884\MP4SDQ=-212.7824487\CCSD=-212.6957709\CCSD(T)=-212.7488753\RM
 Normal termination of Gaussian 16 at Mon Mar 26 10:29:05 2018.
