 Gaussian 16, Revision A.03,
 Gaussian 16:  ES64L-G16RevA.03 25-Dec-2016

 ----------------------------------------------------------------------
 #P ROCCSD(T)=(MaxCyc=150, Full)/Gen SCF=(maxcycle=400) Pseudo=Read Int
 egral(NoXCTest) Pop=Regular MaxDisk=500GB Guess=Read IOp(5/15=2)
 ----------------------------------------------------------------------

 ---
 CuO
 ---
 Symbolic Z-matrix:
 Charge =  0 Multiplicity = 2

                         Standard orientation:
 ---------------------------------------------------------------------
 Center     Atomic      Atomic             Coordinates (Angstroms)
 Number     Number       Type             X           Y           Z
 ---------------------------------------------------------------------
      1         29           0        0.000000    0.000000    0.281081
      2          8           0        0.000000    0.000000   -1.018919
 ---------------------------------------------------------------------

 SCF Done:  E(ROHF) =  -211.470979469     A.U. after   20 cycles
 E2 =    -0.1431988128D+01 EUMP2 =    -0.21290296759670D+03
 CCSD(T)
 CCSD(T)= -0.21281548656D+03

 Unable to determine electronic state:  an orbital has unidentified symmetry.
 Alpha  occ. eigenvalues --   -5.40325  -3.55051  -3.50860  -3.49044  -1.35306
 Alpha  occ. eigenvalues --   -0.76971  -0.73549  -0.67684  -0.61833  -0.61795
 Alpha  occ. eigenvalues --   -0.49654  -0.44574  -0.35931
 Alpha virt. eigenvalues --    0.00239   0.02747   0.02881   0.03488   0.05146
 Alpha virt. eigenvalues --    0.09389   0.09813   0.12115   0.13808   0.13817
 Alpha virt. eigenvalues --    0.13918   0.14218   0.14260   0.19093   0.21957

 Mulliken charges and spin densities:
               1          2
     1  Cu   0.624468   0.179199
     2  O   -0.624468   0.820801
 Sum of Mulliken charges =  -0.00000   1.00000

 Dipole moment (field-independent basis, Debye):
    X=              0.0000    Y=              0.0000    Z=              3.7938  Tot=              3.7938
 Quadrupole moment (field-independent basis, Debye-Ang):
   XX=            -17.1017   YY=            -18.5053   ZZ=            -18.1438
   XY=              0.0000   XZ=              0.0000   YZ=              0.0000

 \\#P ROCCSD(T)=(MaxCyc=150, Full)/Gen SCF=(maxcycle=400) Pseudo=Read I
 .9029676\MP4SDQ=-212.8451574\CCSD=-212.7596455\CCSD(T)=-212.8154866\RM
 Normal termination of Gaussian 16 at Mon Mar 26 12:56:16 2018.
