 Gaussian 16, Revision A.03,
 Gaussian 16:  ES64L-G16RevA.03 25-Dec-2016

 ----------------------------------------------------------------------
 #P ROCCSD(T)=(maxcyc=150, Full, SaveAmplitudes, ReadAmplitudes)/Gen 5d
  7f SCF=(maxcycles=300, VShift=400) Integral(NoXCTest) MaxDisk=500GB P
 op=Full Pseudo=Read Guess=Read IOp(5/15=2)
 ----------------------------------------------------------------------

 ---
 CrO
 ---
 Symbolic Z-matrix:
 Charge =  0 Multiplicity = 5

                         Standard orientation:
 ---------------------------------------------------------------------
 Center     Atomic      Atomic             Coordinates (Angstroms)
 Number     Number       Type             X           Y           Z
 ---------------------------------------------------------------------
      1         24           0        0.000000    0.000000    0.375000
      2          8           0        0.000000    0.000000   -1.125000
 ---------------------------------------------------------------------

 SCF Done:  E(ROHF) =  -101.428994610     A.U. after   43 cycles
 E2 =    -0.8769766313D+00 EUMP2 =    -0.10230597124125D+03
 CCSD(T)
 CCSD(T)= -0.10232792605D+03

 Unable to determine electronic state:  an orbital has unidentified symmetry.
 Alpha  occ. eigenvalues --   -3.76392  -2.48480  -2.44443  -2.41913  -1.21245
 Alpha  occ. eigenvalues --   -0.63250  -0.57269  -0.55743  -0.50514  -0.48138
 Alpha  occ. eigenvalues --   -0.39586  -0.30122
 Alpha virt. eigenvalues --    0.00800   0.01176   0.01936   0.03201   0.04674
 Alpha virt. eigenvalues --    0.04968   0.06382   0.07619   0.07628   0.08018
 Alpha virt. eigenvalues --    0.08451   0.08572   0.12847   0.14490   0.16828

 Mulliken charges and spin densities:
               1          2
     1  Cr   1.018525   3.829810
     2  O   -1.018525   0.170190
 Sum of Mulliken charges =  -0.00000   4.00000

 Dipole moment (field-independent basis, Debye):
    X=              0.0000    Y=              0.0000    Z=              4.4717  Tot=              4.4717
 Quadrupole moment (field-independent basis, Debye-Ang):
   XX=            -20.8802   YY=            -19.7665   ZZ=            -24.3986
   XY=              0.0000   XZ=              0.0000   YZ=              0.0000

 \\#P ROCCSD(T)=(maxcyc=150, Full, SaveAmplitudes, ReadAmplitudes)/Gen
 093235\CCSD=-102.2803352\CCSD(T)=-102.327926\RMSD=8.475e-09\PG=C*V [C*
 Normal termination of Gaussian 16 at Thu Apr  5 21:04:55 2018.
