 Gaussian 16, Revision A.03,
 Gaussian 16:  ES64L-G16RevA.03 25-Dec-2016

 ----------------------------------------------------------------------
 #P ROCCSD(T)=(maxcyc=150, Full, SaveAmplitudes, ReadAmplitudes)/Gen 5d
  7f SCF=(maxcycles=300) Integral(NoXCTest) MaxDisk=500GB Pop=Regular P
 seudo=Read Guess=Read
 ----------------------------------------------------------------------

 ---
 ScO
 ---
 Symbolic Z-matrix:
 Charge =  0 Multiplicity = 2

                         Standard orientation:
 ---------------------------------------------------------------------
 Center     Atomic      Atomic             Coordinates (Angstroms)
 Number     Number       Type             X           Y           Z
 ---------------------------------------------------------------------
      1         21           0        0.000000    0.000000    0.331034
      2          8           0        0.000000    0.000000   -0.868966
 ---------------------------------------------------------------------

 SCF Done:  E(ROHF) =  -61.7307074361     A.U. after   16 cycles
 E2 =    -0.6873648585D+00 EUMP2 =    -0.62418072294545D+02
 CCSD(T)
 CCSD(T)= -0.62446832009D+02

 The electronic state is 2-SG.
 Alpha  occ. eigenvalues --   -2.66157  -1.81532  -1.51181  -1.51181  -1.04449
 Alpha  occ. eigenvalues --   -0.63573  -0.63573  -0.47370  -0.17923
 Alpha virt. eigenvalues --    0.00989   0.00989   0.01649   0.02534   0.02824
 Alpha virt. eigenvalues --    0.02824   0.02860   0.02860   0.02886   0.04334
 Alpha virt. eigenvalues --    0.04334   0.06519   0.08159   0.08159   0.08386

 Mulliken charges and spin densities:
               1          2
     1  Sc   0.822735   1.025998
     2  O   -0.822735  -0.025998
 Sum of Mulliken charges =  -0.00000   1.00000

 Dipole moment (field-independent basis, Debye):
    X=              0.0000    Y=              0.0000    Z=             -1.2015  Tot=              1.2015
 Quadrupole moment (field-independent basis, Debye-Ang):
   XX=            -23.4398   YY=            -23.4398   ZZ=            -29.0007
   XY=              0.0000   XZ=              0.0000   YZ=              0.0000

 \\#P ROCCSD(T)=(maxcyc=150, Full, SaveAmplitudes, ReadAmplitudes)/Gen
 307074\PMP2-0=-62.4180723\CCSD=-62.417988\CCSD(T)=-62.446832\RMSD=4.67
 Normal termination of Gaussian 16 at Tue Feb 20 22:16:31 2018.
