 Gaussian 16, Revision A.03,
 Gaussian 16:  ES64L-G16RevA.03 25-Dec-2016

 ----------------------------------------------------------------------
 #P ROCCSD(T)=(maxcyc=150, Full, SaveAmplitudes, ReadAmplitudes)/Gen 5d
  7f SCF=(maxcycles=300) Integral(NoXCTest) MaxDisk=500GB Pop=Regular P
 seudo=Read Guess=Read IOp(5/15=2)
 ----------------------------------------------------------------------

 ---
 TiO
 ---
 Symbolic Z-matrix:
 Charge =  0 Multiplicity = 3

                         Standard orientation:
 ---------------------------------------------------------------------
 Center     Atomic      Atomic             Coordinates (Angstroms)
 Number     Number       Type             X           Y           Z
 ---------------------------------------------------------------------
      1         22           0        0.000000    0.000000    0.373333
      2          8           0        0.000000    0.000000   -1.026667
 ---------------------------------------------------------------------

 SCF Done:  E(ROHF) =  -73.5007398333     A.U. after   23 cycles
 E2 =    -0.7453948511D+00 EUMP2 =    -0.74246134684420D+02
 CCSD(T)
 CCSD(T)= -0.74270485115D+02

 Unable to determine electronic state:  an orbital has unidentified symmetry.
 Alpha  occ. eigenvalues --   -2.98615  -1.91473  -1.84656  -1.84656  -1.15417
 Alpha  occ. eigenvalues --   -0.53340  -0.53340  -0.50275  -0.39215  -0.23453
 Alpha virt. eigenvalues --    0.01026   0.01026   0.02168   0.02545   0.04653
 Alpha virt. eigenvalues --    0.04653   0.05006   0.05119   0.05286   0.05824
 Alpha virt. eigenvalues --    0.05824   0.08104   0.11481   0.12985   0.14408

 Mulliken charges and spin densities:
               1          2
     1  Ti   0.788746   2.023087
     2  O   -0.788746  -0.023087
 Sum of Mulliken charges =   0.00000   2.00000

 Dipole moment (field-independent basis, Debye):
    X=              0.0000    Y=              0.0000    Z=              2.0061  Tot=              2.0061
 Quadrupole moment (field-independent basis, Debye-Ang):
   XX=            -21.5891   YY=            -21.5891   ZZ=            -27.4962
   XY=              0.0000   XZ=              0.0000   YZ=              0.0000

 \\#P ROCCSD(T)=(maxcyc=150, Full, SaveAmplitudes, ReadAmplitudes)/Gen
 232114\CCSD(T)=-74.2704851\RMSD=3.021e-09\PG=C*V [C*(O1Ti1)]\\@
 Normal termination of Gaussian 16 at Mon Mar 12 14:22:06 2018.
