 Gaussian 16, Revision A.03,
 Gaussian 16:  ES64L-G16RevA.03 25-Dec-2016

 ----------------------------------------------------------------------
 #P ROCCSD(T)=(maxcyc=150, Full)/Gen 5d 7f SCF=(maxcycles=300) Integral
 (NoXCTest) MaxDisk=500GB Pop=Regular Pseudo=Read Guess=Read
 ----------------------------------------------------------------------

 ---
 CrH
 ---
 Symbolic Z-matrix:
 Charge =  0 Multiplicity = 6

                         Standard orientation:
 ---------------------------------------------------------------------
 Center     Atomic      Atomic             Coordinates (Angstroms)
 Number     Number       Type             X           Y           Z
 ---------------------------------------------------------------------
      1         24           0        0.000000    0.000000    0.084000
      2          1           0        0.000000    0.000000   -2.016000
 ---------------------------------------------------------------------

 SCF Done:  E(ROHF) =  -86.6788735675     A.U. after   22 cycles
 E2 =    -0.5413691812D+00 EUMP2 =    -0.87220242748748D+02
 CCSD(T)
 CCSD(T)= -0.87274959211D+02

 The electronic state is 6-SG.
 Alpha  occ. eigenvalues --   -3.76246  -2.51732  -2.51732  -2.46705  -0.58753
 Alpha  occ. eigenvalues --   -0.58753  -0.55182  -0.55182  -0.36945  -0.27040
 Alpha virt. eigenvalues --    0.00865   0.00865   0.01776   0.02509   0.04431
 Alpha virt. eigenvalues --    0.04650   0.04650   0.05243   0.05243   0.05655
 Alpha virt. eigenvalues --    0.05655   0.06462   0.09723   0.12089   0.15397

 Mulliken charges and spin densities:
               1          2
     1  Cr   0.352591   4.973361
     2  H   -0.352591   0.026639
 Sum of Mulliken charges =  -0.00000   5.00000

 Dipole moment (field-independent basis, Debye):
    X=              0.0000    Y=              0.0000    Z=              3.2957  Tot=              3.2957
 Quadrupole moment (field-independent basis, Debye-Ang):
   XX=            -17.3439   YY=            -17.3439   ZZ=            -27.8656
   XY=              0.0000   XZ=              0.0000   YZ=              0.0000

 \\#P ROCCSD(T)=(maxcyc=150, Full)/Gen 5d 7f SCF=(maxcycles=300) Integr
 7.2202427\MP4SDQ=-87.2355468\CCSD=-87.2595273\CCSD(T)=-87.2749592\RMSD
 Normal termination of Gaussian 16 at Tue Feb 13 16:42:11 2018.
