 Gaussian 16, Revision A.03,
 Gaussian 16:  ES64L-G16RevA.03 25-Dec-2016

 ----------------------------------------------------------------------
 #P ROCCSD(T)=(maxcyc=150, Full, SaveAmplitudes, ReadAmplitudes)/Gen 5d
  7f SCF=(maxcycles=300) Integral(NoXCTest) MaxDisk=500GB Pop=Regular P
 seudo=Read Guess=Read IOp(5/15=2)
 ----------------------------------------------------------------------

 ---
 TiO
 ---
 Symbolic Z-matrix:
 Charge =  0 Multiplicity = 3

                         Standard orientation:
 ---------------------------------------------------------------------
 Center     Atomic      Atomic             Coordinates (Angstroms)
 Number     Number       Type             X           Y           Z
 ---------------------------------------------------------------------
      1         22           0        0.000000    0.000000    0.346667
      2          8           0        0.000000    0.000000   -0.953333
 ---------------------------------------------------------------------

 SCF Done:  E(ROHF) =  -73.1399811118     A.U. after   23 cycles
 E2 =    -0.7321094125D+00 EUMP2 =    -0.73872090524305D+02
 CCSD(T)
 CCSD(T)= -0.73896807329D+02

 Unable to determine electronic state:  an orbital has unidentified symmetry.
 Alpha  occ. eigenvalues --   -2.93645  -1.96262  -1.82715  -1.82715  -1.13872
 Alpha  occ. eigenvalues --   -0.59336  -0.59336  -0.52613  -0.35607  -0.21600
 Alpha virt. eigenvalues --    0.01194   0.01194   0.02319   0.02552   0.04820
 Alpha virt. eigenvalues --    0.04820   0.05011   0.05166   0.05329   0.05795
 Alpha virt. eigenvalues --    0.05795   0.08536   0.11824   0.13699   0.14650

 Mulliken charges and spin densities:
               1          2
     1  Ti   0.715904   2.040224
     2  O   -0.715904  -0.040224
 Sum of Mulliken charges =  -0.00000   2.00000

 Dipole moment (field-independent basis, Debye):
    X=              0.0000    Y=              0.0000    Z=              0.6134  Tot=              0.6134
 Quadrupole moment (field-independent basis, Debye-Ang):
   XX=            -22.0931   YY=            -22.0931   ZZ=            -27.1032
   XY=              0.0000   XZ=              0.0000   YZ=              0.0000

 \\#P ROCCSD(T)=(maxcyc=150, Full, SaveAmplitudes, ReadAmplitudes)/Gen
 8623949\CCSD(T)=-73.8968073\RMSD=7.796e-09\PG=C*V [C*(O1Ti1)]\\@
 Normal termination of Gaussian 16 at Sat Mar 10 00:35:51 2018.
