 Gaussian 16, Revision A.03,
 Gaussian 16:  ES64L-G16RevA.03 25-Dec-2016

 ----------------------------------------------------------------------
 #P ROCCSD(T)=(maxcyc=150, Full, SaveAmplitudes, ReadAmplitudes)/Gen 5d
  7f SCF=(maxcycles=300) Integral(NoXCTest) MaxDisk=500GB Pop=Regular P
 seudo=Read Guess=Read
 ----------------------------------------------------------------------

 ---
 ScO
 ---
 Symbolic Z-matrix:
 Charge =  0 Multiplicity = 2

                         Standard orientation:
 ---------------------------------------------------------------------
 Center     Atomic      Atomic             Coordinates (Angstroms)
 Number     Number       Type             X           Y           Z
 ---------------------------------------------------------------------
      1         21           0        0.000000    0.000000    0.358621
      2          8           0        0.000000    0.000000   -0.941379
 ---------------------------------------------------------------------

 SCF Done:  E(ROHF) =  -61.9049775158     A.U. after   17 cycles
 E2 =    -0.6946429925D+00 EUMP2 =    -0.62599620508329D+02
 CCSD(T)
 CCSD(T)= -0.62625724866D+02

 The electronic state is 2-SG.
 Alpha  occ. eigenvalues --   -2.61649  -1.76798  -1.53040  -1.53040  -1.06673
 Alpha  occ. eigenvalues --   -0.57719  -0.57719  -0.47078  -0.19545
 Alpha virt. eigenvalues --    0.00966   0.00966   0.01896   0.02272   0.02812
 Alpha virt. eigenvalues --    0.02812   0.02897   0.02897   0.02897   0.04185
 Alpha virt. eigenvalues --    0.04185   0.06567   0.08089   0.08089   0.08565

 Mulliken charges and spin densities:
               1          2
     1  Sc   0.961535   1.008756
     2  O   -0.961535  -0.008756
 Sum of Mulliken charges =  -0.00000   1.00000

 Dipole moment (field-independent basis, Debye):
    X=              0.0000    Y=              0.0000    Z=              0.2485  Tot=              0.2485
 Quadrupole moment (field-independent basis, Debye-Ang):
   XX=            -22.6689   YY=            -22.6689   ZZ=            -29.3784
   XY=              0.0000   XZ=              0.0000   YZ=              0.0000

 \\#P ROCCSD(T)=(maxcyc=150, Full, SaveAmplitudes, ReadAmplitudes)/Gen
 049775\PMP2-0=-62.5996205\CCSD=-62.5942016\CCSD(T)=-62.6257249\RMSD=1.
 Normal termination of Gaussian 16 at Tue Feb 27 14:16:09 2018.
