 Gaussian 16, Revision A.03,
 Gaussian 16:  ES64L-G16RevA.03 25-Dec-2016

 ----------------------------------------------------------------------
 #P ROCCSD(T)=(maxcyc=150, Full, SaveAmplitudes, ReadAmplitudes)/Gen 5d
  7f SCF=(maxcycles=300) Integral(NoXCTest) MaxDisk=500GB Pop=Regular P
 seudo=Read Guess=Read
 ----------------------------------------------------------------------

 ---
 TiO
 ---
 Symbolic Z-matrix:
 Charge =  0 Multiplicity = 3

                         Standard orientation:
 ---------------------------------------------------------------------
 Center     Atomic      Atomic             Coordinates (Angstroms)
 Number     Number       Type             X           Y           Z
 ---------------------------------------------------------------------
      1         22           0        0.000000    0.000000    0.373333
      2          8           0        0.000000    0.000000   -1.026667
 ---------------------------------------------------------------------

 SCF Done:  E(ROHF) =  -73.4870554111     A.U. after   19 cycles
 E2 =    -0.7723100606D+00 EUMP2 =    -0.74259365471644D+02
 CCSD(T)
 CCSD(T)= -0.74282091234D+02

 Unable to determine electronic state:  an orbital has unidentified symmetry.
 Alpha  occ. eigenvalues --   -2.98614  -1.91645  -1.84641  -1.84641  -1.16285
 Alpha  occ. eigenvalues --   -0.53399  -0.53399  -0.50317  -0.39217  -0.23447
 Alpha virt. eigenvalues --    0.00977   0.00977   0.01992   0.02314   0.03779
 Alpha virt. eigenvalues --    0.03833   0.03867   0.03867   0.03959   0.04406
 Alpha virt. eigenvalues --    0.04406   0.06766   0.10328   0.10411   0.11407

 Mulliken charges and spin densities:
               1          2
     1  Ti   0.942304   1.969504
     2  O   -0.942304   0.030496
 Sum of Mulliken charges =   0.00000   2.00000

 Dipole moment (field-independent basis, Debye):
    X=              0.0000    Y=              0.0000    Z=              2.0031  Tot=              2.0031
 Quadrupole moment (field-independent basis, Debye-Ang):
   XX=            -21.5939   YY=            -21.5939   ZZ=            -27.5029
   XY=              0.0000   XZ=              0.0000   YZ=              0.0000

 \\#P ROCCSD(T)=(maxcyc=150, Full, SaveAmplitudes, ReadAmplitudes)/Gen
 -0=-74.2593655\CCSD=-74.24251\CCSD(T)=-74.2820912\RMSD=2.392e-09\PG=C*
 Normal termination of Gaussian 16 at Mon Mar 12 15:35:37 2018.
