 Gaussian 16, Revision A.03,
 Gaussian 16:  ES64L-G16RevA.03 25-Dec-2016

 ----------------------------------------------------------------------
 #P ROCCSD(T)=(maxcyc=150, Full, SaveAmplitudes, ReadAmplitudes)/Gen 5d
  7f SCF=(maxcycles=300) Integral(NoXCTest) MaxDisk=500GB Pop=Regular P
 seudo=Read Guess=Read
 ----------------------------------------------------------------------

 ---
 ScO
 ---
 Symbolic Z-matrix:
 Charge =  0 Multiplicity = 2

                         Standard orientation:
 ---------------------------------------------------------------------
 Center     Atomic      Atomic             Coordinates (Angstroms)
 Number     Number       Type             X           Y           Z
 ---------------------------------------------------------------------
      1         21           0        0.000000    0.000000    0.358621
      2          8           0        0.000000    0.000000   -0.941379
 ---------------------------------------------------------------------

 SCF Done:  E(ROHF) =  -61.8851383108     A.U. after   15 cycles
 E2 =    -0.6986320439D+00 EUMP2 =    -0.62583770354741D+02
 CCSD(T)
 CCSD(T)= -0.62610169936D+02

 The electronic state is 2-SG.
 Alpha  occ. eigenvalues --   -2.63529  -1.75906  -1.52069  -1.52069  -1.06625
 Alpha  occ. eigenvalues --   -0.57742  -0.57742  -0.46873  -0.19461
 Alpha virt. eigenvalues --    0.00947   0.00947   0.01884   0.02294   0.02810
 Alpha virt. eigenvalues --    0.02810   0.02894   0.02894   0.02895   0.04169
 Alpha virt. eigenvalues --    0.04169   0.06552   0.08077   0.08077   0.08557

 Mulliken charges and spin densities:
               1          2
     1  Sc   0.981654   1.015389
     2  O   -0.981654  -0.015389
 Sum of Mulliken charges =  -0.00000   1.00000

 Dipole moment (field-independent basis, Debye):
    X=              0.0000    Y=              0.0000    Z=              0.1801  Tot=              0.1801
 Quadrupole moment (field-independent basis, Debye-Ang):
   XX=            -22.7277   YY=            -22.7277   ZZ=            -29.6089
   XY=              0.0000   XZ=              0.0000   YZ=              0.0000

 \\#P ROCCSD(T)=(maxcyc=150, Full, SaveAmplitudes, ReadAmplitudes)/Gen
 851383\PMP2-0=-62.5837704\CCSD=-62.5786652\CCSD(T)=-62.6101699\RMSD=3.
 Normal termination of Gaussian 16 at Tue Feb 20 23:35:17 2018.
