 Gaussian 16, Revision A.03,
 Gaussian 16:  ES64L-G16RevA.03 25-Dec-2016

 ----------------------------------------------------------------------
 #P ROCCSD(T)=(maxcyc=150, Full, SaveAmplitudes, ReadAmplitudes)/Gen 5d
  7f SCF=(maxcycles=300) Integral(NoXCTest) MaxDisk=500GB Pop=Regular P
 seudo=Read Guess=Read IOp(5/15=2)
 ----------------------------------------------------------------------

 ---
 CrH
 ---
 Symbolic Z-matrix:
 Charge =  0 Multiplicity = 6

                         Standard orientation:
 ---------------------------------------------------------------------
 Center     Atomic      Atomic             Coordinates (Angstroms)
 Number     Number       Type             X           Y           Z
 ---------------------------------------------------------------------
      1         24           0        0.000000    0.000000    0.068000
      2          1           0        0.000000    0.000000   -1.632000
 ---------------------------------------------------------------------

 SCF Done:  E(ROHF) =  -86.8775434077     A.U. after    1 cycles
 E2 =    -0.5477488872D+00 EUMP2 =    -0.87425292294830D+02
 CCSD(T)
 CCSD(T)= -0.87472703370D+02

 The electronic state is 6-SG.
 Alpha  occ. eigenvalues --   -3.67527  -2.43951  -2.43951  -2.39206  -0.54668
 Alpha  occ. eigenvalues --   -0.54668  -0.51350  -0.51350  -0.40860  -0.26084
 Alpha virt. eigenvalues --    0.01260   0.01260   0.02300   0.02570   0.05471
 Alpha virt. eigenvalues --    0.05471   0.05815   0.07606   0.07606   0.08041
 Alpha virt. eigenvalues --    0.08041   0.08890   0.10417   0.17708   0.20820

 Mulliken charges and spin densities:
               1          2
     1  Cr   0.459051   4.983867
     2  H   -0.459051   0.016133
 Sum of Mulliken charges =   0.00000   5.00000

 Dipole moment (field-independent basis, Debye):
    X=              0.0000    Y=              0.0000    Z=              2.0649  Tot=              2.0649
 Quadrupole moment (field-independent basis, Debye-Ang):
   XX=            -16.9050   YY=            -16.9050   ZZ=            -24.3268
   XY=              0.0000   XZ=              0.0000   YZ=              0.0000

 \\#P ROCCSD(T)=(maxcyc=150, Full, SaveAmplitudes, ReadAmplitudes)/Gen
 34\CCSD=-87.4554496\CCSD(T)=-87.4727034\RMSD=6.921e-09\PG=C*V [C*(H1Cr
 Normal termination of Gaussian 16 at Mon Feb 26 08:07:37 2018.
