 Gaussian 16, Revision A.03,
 Gaussian 16:  ES64L-G16RevA.03 25-Dec-2016

 ----------------------------------------------------------------------
 #P ROHF/Gen 5d 7f SCF=(maxcycles=300) Integral(NoXCTest) MaxDisk=500GB
  Pop=Regular Pseudo=Read
 ----------------------------------------------------------------------

 ---
 CrH
 ---
 Symbolic Z-matrix:
 Charge =  0 Multiplicity = 6

                         Standard orientation:
 ---------------------------------------------------------------------
 Center     Atomic      Atomic             Coordinates (Angstroms)
 Number     Number       Type             X           Y           Z
 ---------------------------------------------------------------------
      1         24           0        0.000000    0.000000    0.068000
      2          1           0        0.000000    0.000000   -1.632000
 ---------------------------------------------------------------------

 SCF Done:  E(ROHF) =  -86.8775434077     A.U. after   28 cycles

 The electronic state is 6-SG.
 Alpha  occ. eigenvalues --   -3.45110  -2.16678  -2.14759  -2.14759  -0.38530
 Alpha  occ. eigenvalues --   -0.06616  -0.06616  -0.06456  -0.05243  -0.05243
 Alpha virt. eigenvalues --    0.01865   0.01865   0.02401   0.02865   0.06477
 Alpha virt. eigenvalues --    0.06477   0.06798   0.07702   0.07702   0.08130
 Alpha virt. eigenvalues --    0.08130   0.09365   0.11569   0.18985   0.22115

 Mulliken charges and spin densities:
               1          2
     1  Cr   0.459051   4.983867
     2  H   -0.459051   0.016133
 Sum of Mulliken charges =  -0.00000   5.00000

 Dipole moment (field-independent basis, Debye):
    X=              0.0000    Y=              0.0000    Z=              2.0649  Tot=              2.0649
 Quadrupole moment (field-independent basis, Debye-Ang):
   XX=            -16.9050   YY=            -16.9050   ZZ=            -24.3268
   XY=              0.0000   XZ=              0.0000   YZ=              0.0000

 Normal termination of Gaussian 16 at Sun Feb 25 16:50:12 2018.
