 Gaussian 16, Revision A.03,
 Gaussian 16:  ES64L-G16RevA.03 25-Dec-2016

 ----------------------------------------------------------------------
 #P ROCCSD(T)=(maxcyc=150, Full)/Gen 5d 7f SCF=(maxcycles=300) Integral
 (NoXCTest) MaxDisk=500GB Pop=Regular Pseudo=Read Guess=Read
 ----------------------------------------------------------------------

 ---
 ScH
 ---
 Symbolic Z-matrix:
 Charge =  0 Multiplicity = 1

                         Standard orientation:
 ---------------------------------------------------------------------
 Center     Atomic      Atomic             Coordinates (Angstroms)
 Number     Number       Type             X           Y           Z
 ---------------------------------------------------------------------
      1         21           0        0.000000    0.000000    0.059091
      2          1           0        0.000000    0.000000   -1.240909
 ---------------------------------------------------------------------

 SCF Done:  E(ROHF) =  -46.5915191338     A.U. after    9 cycles
 E2 =    -0.4400971309D+00 EUMP2 =    -0.47031616264694D+02
 CCSD(T)
 CCSD(T)= -0.47068157470D+02

 The electronic state is 1-SG.
 Alpha  occ. eigenvalues --   -2.62711  -1.63400  -1.60489  -1.60489  -0.46209
 Alpha  occ. eigenvalues --   -0.21671
 Alpha virt. eigenvalues --    0.01286   0.01286   0.01402   0.01674   0.02613
 Alpha virt. eigenvalues --    0.02613   0.02635   0.02635   0.02636   0.04083
 Alpha virt. eigenvalues --    0.04348   0.04348   0.07011   0.07414   0.07414

 Mulliken charges and spin densities:
               1          2
     1  Sc   0.326940   0.000000
     2  H   -0.326940   0.000000
 Sum of Mulliken charges =  -0.00000   0.00000

 Dipole moment (field-independent basis, Debye):
    X=              0.0000    Y=              0.0000    Z=              0.6738  Tot=              0.6738
 Quadrupole moment (field-independent basis, Debye-Ang):
   XX=            -23.5835   YY=            -23.5835   ZZ=            -23.1411
   XY=              0.0000   XZ=              0.0000   YZ=              0.0000

 P ROCCSD(T)=(maxcyc=150, Full)/Gen 5d 7f SCF=(maxcycles=300) Integral(
 316163\MP4SDQ=-47.0495866\CCSD=-47.0491175\CCSD(T)=-47.0681575\RMSD=2.
 Normal termination of Gaussian 16 at Mon Feb 12 21:36:05 2018.
