 Gaussian 16, Revision A.03,
 Gaussian 16:  ES64L-G16RevA.03 25-Dec-2016

 ----------------------------------------------------------------------
 #P ROCCSD(T)=(maxcyc=150, Full)/Gen 5d 7f SCF=(maxcycles=300) Integral
 (NoXCTest) MaxDisk=500GB Pop=Regular Pseudo=Read IOp(5/15=2) Guess=Rea
 d
 ----------------------------------------------------------------------

 ---
 ScH
 ---
 Symbolic Z-matrix:
 Charge =  0 Multiplicity = 1

                         Standard orientation:
 ---------------------------------------------------------------------
 Center     Atomic      Atomic             Coordinates (Angstroms)
 Number     Number       Type             X           Y           Z
 ---------------------------------------------------------------------
      1         21           0        0.000000    0.000000    0.059091
      2          1           0        0.000000    0.000000   -1.240909
 ---------------------------------------------------------------------

 SCF Done:  E(ROHF) =  -46.7178279583     A.U. after   12 cycles
 E2 =    -0.4354590993D+00 EUMP2 =    -0.47153287057637D+02
 CCSD(T)
 CCSD(T)= -0.47191810225D+02

 The electronic state is 1-SG.
 Alpha  occ. eigenvalues --   -2.69214  -1.62724  -1.59841  -1.59841  -0.46161
 Alpha  occ. eigenvalues --   -0.21696
 Alpha virt. eigenvalues --    0.01283   0.01283   0.01480   0.01937   0.02888
 Alpha virt. eigenvalues --    0.02888   0.02897   0.02897   0.02902   0.04387
 Alpha virt. eigenvalues --    0.04387   0.04411   0.07920   0.08197   0.08197

 Mulliken charges and spin densities:
               1          2
     1  Sc   0.282671   0.000000
     2  H   -0.282671   0.000000
 Sum of Mulliken charges =  -0.00000   0.00000

 Dipole moment (field-independent basis, Debye):
    X=              0.0000    Y=              0.0000    Z=              0.6148  Tot=              0.6148
 Quadrupole moment (field-independent basis, Debye-Ang):
   XX=            -23.5675   YY=            -23.5675   ZZ=            -23.2262
   XY=              0.0000   XZ=              0.0000   YZ=              0.0000

 P ROCCSD(T)=(maxcyc=150, Full)/Gen 5d 7f SCF=(maxcycles=300) Integral(
 P2-0=-47.1532871\MP4SDQ=-47.1735762\CCSD=-47.1731193\CCSD(T)=-47.19181
 Normal termination of Gaussian 16 at Tue Feb 13 20:46:30 2018.
