 Gaussian 16, Revision A.03,
 Gaussian 16:  ES64L-G16RevA.03 25-Dec-2016

 ----------------------------------------------------------------------
 #P ROCCSD(T)=(MaxCyc=150, Full)/Gen SCF=(maxcycle=400) Pseudo=Read Int
 egral(NoXCTest) Pop=Regular MaxDisk=500GB
 ----------------------------------------------------------------------

 ---
 FeO
 ---
 Symbolic Z-matrix:
 Charge =  0 Multiplicity = 5

                         Standard orientation:
 ---------------------------------------------------------------------
 Center     Atomic      Atomic             Coordinates (Angstroms)
 Number     Number       Type             X           Y           Z
 ---------------------------------------------------------------------
      1         26           0        0.000000    0.000000    0.329412
      2          8           0        0.000000    0.000000   -1.070588
 ---------------------------------------------------------------------

 SCF Done:  E(ROHF) =  -138.425286310     A.U. after   29 cycles
 E2 =    -0.1095614652D+01 EUMP2 =    -0.13952090096264D+03
 CCSD(T)
 CCSD(T)= -0.13951423121D+03

 Unable to determine electronic state:  partially filled degenerate orbitals.
 Alpha  occ. eigenvalues --   -4.35488  -2.99818  -2.94609  -2.94609  -1.24653
 Alpha  occ. eigenvalues --   -0.72406  -0.72406  -0.63408  -0.59036  -0.58055
 Alpha  occ. eigenvalues --   -0.41718  -0.41718  -0.32881
 Alpha virt. eigenvalues --    0.00167   0.02085   0.02085   0.03306   0.03900
 Alpha virt. eigenvalues --    0.06375   0.06375   0.06627   0.06637   0.06779
 Alpha virt. eigenvalues --    0.07892   0.07892   0.12005   0.14760   0.19350

 Mulliken charges and spin densities:
               1          2
     1  Fe   0.977341   3.759917
     2  O   -0.977341   0.240083
 Sum of Mulliken charges =  -0.00000   4.00000

 Dipole moment (field-independent basis, Debye):
    X=              0.0000    Y=              0.0000    Z=              4.8974  Tot=              4.8974
 Quadrupole moment (field-independent basis, Debye-Ang):
   XX=            -19.0077   YY=            -19.0077   ZZ=            -21.2764
   XY=              0.0000   XZ=              0.0000   YZ=              0.0000

 \\#P ROCCSD(T)=(MaxCyc=150, Full)/Gen SCF=(maxcycle=400) Pseudo=Read I
 515\CCSD=-139.4651063\CCSD(T)=-139.5142312\RMSD=3.009e-09\PG=C*V [C*(O
 Normal termination of Gaussian 16 at Sun Mar 25 02:43:20 2018.
