 Gaussian 16, Revision A.03,
 Gaussian 16:  ES64L-G16RevA.03 25-Dec-2016

 ----------------------------------------------------------------------
 #P ROCCSD(T)=(MaxCyc=150, Full)/Gen SCF=(maxcycle=400) Pseudo=Read Int
 egral(NoXCTest) Pop=Regular MaxDisk=500GB
 ----------------------------------------------------------------------

 ---
 FeO
 ---
 Symbolic Z-matrix:
 Charge =  0 Multiplicity = 5

                         Standard orientation:
 ---------------------------------------------------------------------
 Center     Atomic      Atomic             Coordinates (Angstroms)
 Number     Number       Type             X           Y           Z
 ---------------------------------------------------------------------
      1         26           0        0.000000    0.000000    0.329412
      2          8           0        0.000000    0.000000   -1.070588
 ---------------------------------------------------------------------

 SCF Done:  E(ROHF) =  -138.421730086     A.U. after   30 cycles
 E2 =    -0.1047609257D+01 EUMP2 =    -0.13946933934243D+03
 CCSD(T)
 CCSD(T)= -0.13946501368D+03

 Unable to determine electronic state:  partially filled degenerate orbitals.
 Alpha  occ. eigenvalues --   -4.35518  -2.99862  -2.94629  -2.94629  -1.24697
 Alpha  occ. eigenvalues --   -0.72398  -0.72398  -0.63405  -0.59028  -0.58074
 Alpha  occ. eigenvalues --   -0.41701  -0.41701  -0.32904
 Alpha virt. eigenvalues --    0.00200   0.02331   0.02331   0.03575   0.04204
 Alpha virt. eigenvalues --    0.07676   0.07676   0.09874   0.09880   0.09903
 Alpha virt. eigenvalues --    0.10431   0.10431   0.13415   0.15948   0.25486

 Mulliken charges and spin densities:
               1          2
     1  Fe   0.897860   3.769209
     2  O   -0.897860   0.230791
 Sum of Mulliken charges =  -0.00000   4.00000

 Dipole moment (field-independent basis, Debye):
    X=              0.0000    Y=              0.0000    Z=              4.9147  Tot=              4.9147
 Quadrupole moment (field-independent basis, Debye-Ang):
   XX=            -19.0061   YY=            -19.0061   ZZ=            -21.2895
   XY=              0.0000   XZ=              0.0000   YZ=              0.0000

 \\#P ROCCSD(T)=(MaxCyc=150, Full)/Gen SCF=(maxcycle=400) Pseudo=Read I
 84004\CCSD=-139.4180592\CCSD(T)=-139.4650137\RMSD=7.797e-09\PG=C*V [C*
 Normal termination of Gaussian 16 at Sun Mar 25 00:44:36 2018.
