 Gaussian 16, Revision A.03,
 Gaussian 16:  ES64L-G16RevA.03 25-Dec-2016

 ----------------------------------------------------------------------
 #P ROCCSD(T)=(maxcyc=150, Full)/Gen 5d 7f SCF=(maxcycles=300, NoVarAcc
 , VShift=300) MaxDisk=100GB Pop=Regular Pseudo=Read Guess=Read IOp(5/1
 5=2)
 ----------------------------------------------------------------------

 --
 Cr
 --
 Symbolic Z-matrix:
 Charge =  0 Multiplicity = 7

                         Standard orientation:
 ---------------------------------------------------------------------
 Center     Atomic      Atomic             Coordinates (Angstroms)
 Number     Number       Type             X           Y           Z
 ---------------------------------------------------------------------
      1         24           0        0.000000    0.000000    0.000000
 ---------------------------------------------------------------------

 SCF Done:  E(ROHF) =  -85.8679653422     A.U. after   41 cycles
 E2 =    -0.5277941614D+00 EUMP2 =    -0.86395759503576D+02
 CCSD(T)
 CCSD(T)= -0.86406805857D+02

 The electronic state is 7-A1G.
 Alpha  occ. eigenvalues --   -3.57728  -2.29083  -2.29083  -2.29083  -0.36958
 Alpha  occ. eigenvalues --   -0.36958  -0.36958  -0.36958  -0.36958  -0.22679
 Alpha virt. eigenvalues --    0.01815   0.01815   0.01815   0.03165   0.06559
 Alpha virt. eigenvalues --    0.06559   0.06559   0.07937   0.07937   0.07937
 Alpha virt. eigenvalues --    0.07937   0.07937   0.21030   0.23273   0.23273

 Mulliken charges and spin densities:
               1          2
     1  Cr  -0.000000   6.000000
 Sum of Mulliken charges =  -0.00000   6.00000

 Dipole moment (field-independent basis, Debye):
    X=              0.0000    Y=              0.0000    Z=              0.0000  Tot=              0.0000
 Quadrupole moment (field-independent basis, Debye-Ang):
   XX=            -16.4496   YY=            -16.4496   ZZ=            -16.4496
   XY=              0.0000   XZ=              0.0000   YZ=             -0.0000

 1\1\GINC-C506-003\SP\ROCCSD(T)-Full\Gen\Cr1(7)\AANNABE\05-Apr-2018\0\\
 #P ROCCSD(T)=(maxcyc=150, Full)/Gen 5d 7f SCF=(maxcycles=300, NoVarAcc
 , VShift=300) MaxDisk=100GB Pop=Regular Pseudo=Read Guess=Read IOp(5/1
 5=2)\\Cr\\0,7\Cr,0,0.,0.,0.\\Version=ES64L-G16RevA.03\State=7-A1G\HF=-
 85.8679653\MP2=-86.3957595\MP3=-86.3874738\PUHF=-85.8679653\PMP2-0=-86
 .3957595\MP4SDQ=-86.3917634\CCSD=-86.390629\CCSD(T)=-86.4068059\RMSD=8
 .871e-09\PG=OH [O(Cr1)]\\@

 Normal termination of Gaussian 16 at Thu Apr  5 18:06:40 2018.
