 Gaussian 16, Revision A.03,
 Gaussian 16:  ES64L-G16RevA.03 25-Dec-2016

 ----------------------------------------------------------------------
 #P ROCCSD(T)=(MaxCyc=150, Full)/Gen SCF=(maxcycle=400, vshift=200) Pse
 udo=Read Integral(NoXCTest) Pop=Regular MaxDisk=500GB
 ----------------------------------------------------------------------

 ---
 ZnO
 ---
 Symbolic Z-matrix:
 Charge =  0 Multiplicity = 1

                         Standard orientation:
 ---------------------------------------------------------------------
 Center     Atomic      Atomic             Coordinates (Angstroms)
 Number     Number       Type             X           Y           Z
 ---------------------------------------------------------------------
      1         30           0        0.000000    0.000000    0.294737
      2          8           0        0.000000    0.000000   -1.105263
 ---------------------------------------------------------------------

 SCF Done:  E(ROHF) =  -240.816130271     A.U. after   19 cycles
 E2 =    -0.1410442692D+01 EUMP2 =    -0.24222657296302D+03
 CCSD(T)
 CCSD(T)= -0.24215654895D+03

 The electronic state is 1-SG.
 Alpha  occ. eigenvalues --   -5.91567  -4.00451  -3.98788  -3.98788  -1.24260
 Alpha  occ. eigenvalues --   -0.85717  -0.85717  -0.82616  -0.82616  -0.79256
 Alpha  occ. eigenvalues --   -0.41025  -0.41025  -0.39526
 Alpha virt. eigenvalues --   -0.03595   0.02685   0.02685   0.02846   0.04130
 Alpha virt. eigenvalues --    0.08659   0.08659   0.12341   0.16780   0.17943
 Alpha virt. eigenvalues --    0.18156   0.18156   0.20119   0.20119   0.23082

 Mulliken charges and spin densities:
               1          2
     1  Zn   1.078859   0.000000
     2  O   -1.078859   0.000000
 Sum of Mulliken charges =  -0.00000   0.00000

 Dipole moment (field-independent basis, Debye):
    X=              0.0000    Y=              0.0000    Z=              6.5113  Tot=              6.5113
 Quadrupole moment (field-independent basis, Debye-Ang):
   XX=            -17.9067   YY=            -17.9067   ZZ=            -20.1734
   XY=              0.0000   XZ=              0.0000   YZ=              0.0000

 P ROCCSD(T)=(MaxCyc=150, Full)/Gen SCF=(maxcycle=400, vshift=200) Pseu
 573\MP4SDQ=-242.1541009\CCSD=-242.1061622\CCSD(T)=-242.156549\RMSD=4.2
 Normal termination of Gaussian 16 at Fri Apr 13 21:35:42 2018.
