 Gaussian 16, Revision A.03,
 Gaussian 16:  ES64L-G16RevA.03 25-Dec-2016

 ----------------------------------------------------------------------
 #P ROCCSD(T)=(MaxCyc=150, Full)/Gen SCF=(maxcycle=400, vshift=200) Pse
 udo=Read Integral(NoXCTest) Pop=Regular MaxDisk=500GB
 ----------------------------------------------------------------------

 ---
 ZnO
 ---
 Symbolic Z-matrix:
 Charge =  0 Multiplicity = 1

                         Standard orientation:
 ---------------------------------------------------------------------
 Center     Atomic      Atomic             Coordinates (Angstroms)
 Number     Number       Type             X           Y           Z
 ---------------------------------------------------------------------
      1         30           0        0.000000    0.000000    0.294737
      2          8           0        0.000000    0.000000   -1.105263
 ---------------------------------------------------------------------

 SCF Done:  E(ROHF) =  -240.813044134     A.U. after   19 cycles
 E2 =    -0.1341487935D+01 EUMP2 =    -0.24215453206815D+03
 CCSD(T)
 CCSD(T)= -0.24208691812D+03

 The electronic state is 1-SG.
 Alpha  occ. eigenvalues --   -5.91582  -4.00478  -3.98804  -3.98804  -1.24313
 Alpha  occ. eigenvalues --   -0.85726  -0.85726  -0.82623  -0.82623  -0.79274
 Alpha  occ. eigenvalues --   -0.41020  -0.41020  -0.39541
 Alpha virt. eigenvalues --   -0.03605   0.02984   0.02984   0.03102   0.04566
 Alpha virt. eigenvalues --    0.09970   0.09970   0.13615   0.18328   0.21758
 Alpha virt. eigenvalues --    0.23325   0.23325   0.25146   0.25146   0.30407

 Mulliken charges and spin densities:
               1          2
     1  Zn   1.298118   0.000000
     2  O   -1.298118   0.000000
 Sum of Mulliken charges =  -0.00000   0.00000

 Dipole moment (field-independent basis, Debye):
    X=              0.0000    Y=              0.0000    Z=              6.5251  Tot=              6.5251
 Quadrupole moment (field-independent basis, Debye-Ang):
   XX=            -17.9170   YY=            -17.9170   ZZ=            -20.1805
   XY=              0.0000   XZ=              0.0000   YZ=              0.0000

 P ROCCSD(T)=(MaxCyc=150, Full)/Gen SCF=(maxcycle=400, vshift=200) Pseu
 45321\MP4SDQ=-242.0881296\CCSD=-242.039145\CCSD(T)=-242.0869181\RMSD=4
 Normal termination of Gaussian 16 at Fri Apr 13 19:16:36 2018.
