 Gaussian 16, Revision A.03,
 Gaussian 16:  ES64L-G16RevA.03 25-Dec-2016

 ----------------------------------------------------------------------
 #P ROCCSD(T)=(maxcyc=150, Full, SaveAmplitudes, ReadAmplitudes)/Gen 5d
  7f SCF=(maxcycles=300, VShift=400) Integral(NoXCTest) MaxDisk=500GB P
 op=Full Pseudo=Read Guess=Read IOp(5/15=2)
 ----------------------------------------------------------------------

 ---
 MnO
 ---
 Symbolic Z-matrix:
 Charge =  0 Multiplicity = 6

                         Standard orientation:
 ---------------------------------------------------------------------
 Center     Atomic      Atomic             Coordinates (Angstroms)
 Number     Number       Type             X           Y           Z
 ---------------------------------------------------------------------
      1         25           0        0.000000    0.000000    0.460606
      2          8           0        0.000000    0.000000   -1.439394
 ---------------------------------------------------------------------

 SCF Done:  E(ROHF) =  -119.348774909     A.U. after   49 cycles
 E2 =    -0.8916671320D+00 EUMP2 =    -0.12024044204105D+03
 CCSD(T)
 CCSD(T)= -0.12026770471D+03

 The electronic state is 6-SG.
 Alpha  occ. eigenvalues --   -4.15371  -2.78353  -2.78353  -2.77944  -1.10283
 Alpha  occ. eigenvalues --   -0.66860  -0.66860  -0.66764  -0.66764  -0.64362
 Alpha  occ. eigenvalues --   -0.34755  -0.34755  -0.32184
 Alpha virt. eigenvalues --   -0.05275   0.01304   0.01304   0.01630   0.03797
 Alpha virt. eigenvalues --    0.06268   0.06268   0.08226   0.08307   0.08307
 Alpha virt. eigenvalues --    0.09316   0.09316   0.12692   0.13904   0.22535

 Mulliken charges and spin densities:
               1          2
     1  Mn   1.062134   4.954942
     2  O   -1.062134   0.045058
 Sum of Mulliken charges =  -0.00000   5.00000

 Dipole moment (field-independent basis, Debye):
    X=              0.0000    Y=              0.0000    Z=              9.2721  Tot=              9.2721
 Quadrupole moment (field-independent basis, Debye-Ang):
   XX=            -19.2412   YY=            -19.2412   ZZ=            -25.1611
   XY=              0.0000   XZ=              0.0000   YZ=              0.0000

 \\#P ROCCSD(T)=(maxcyc=150, Full, SaveAmplitudes, ReadAmplitudes)/Gen
 DQ=-120.2358839\CCSD=-120.2281412\CCSD(T)=-120.2677047\RMSD=7.161e-09\
 Normal termination of Gaussian 16 at Wed Apr  4 02:25:55 2018.
