 Gaussian 16, Revision A.03,
 Gaussian 16:  ES64L-G16RevA.03 25-Dec-2016

 ----------------------------------------------------------------------
 #P ROCCSD(T)=(maxcyc=150, Full, SaveAmplitudes, ReadAmplitudes)/Gen 5d
  7f SCF=(maxcycles=300, VShift=400) Integral(NoXCTest) MaxDisk=500GB P
 op=Full Pseudo=Read Guess=Read IOp(5/15=2)
 ----------------------------------------------------------------------

 ---
 CrO
 ---
 Symbolic Z-matrix:
 Charge =  0 Multiplicity = 5

                         Standard orientation:
 ---------------------------------------------------------------------
 Center     Atomic      Atomic             Coordinates (Angstroms)
 Number     Number       Type             X           Y           Z
 ---------------------------------------------------------------------
      1         24           0        0.000000    0.000000    0.450000
      2          8           0        0.000000    0.000000   -1.350000
 ---------------------------------------------------------------------

 SCF Done:  E(ROHF) =  -102.116893484     A.U. after   70 cycles
 E2 =    -0.8525747363D+00 EUMP2 =    -0.10296946821992D+03
 CCSD(T)
 CCSD(T)= -0.10302430218D+03

 Unable to determine electronic state:  an orbital has unidentified symmetry.
 Alpha  occ. eigenvalues --   -3.77256  -2.48331  -2.43285  -2.42505  -1.09694
 Alpha  occ. eigenvalues --   -0.58300  -0.56719  -0.56072  -0.53043  -0.34122
 Alpha  occ. eigenvalues --   -0.32889  -0.32569
 Alpha virt. eigenvalues --   -0.04588   0.00758   0.01371   0.01780   0.03721
 Alpha virt. eigenvalues --    0.05049   0.06227   0.07407   0.07413   0.07622
 Alpha virt. eigenvalues --    0.08368   0.08747   0.12908   0.13870   0.15583

 Mulliken charges and spin densities:
               1          2
     1  Cr   1.172027   3.941259
     2  O   -1.172027   0.058741
 Sum of Mulliken charges =  -0.00000   4.00000

 Dipole moment (field-independent basis, Debye):
    X=              0.0000    Y=              0.0000    Z=              9.7724  Tot=              9.7724
 Quadrupole moment (field-independent basis, Debye-Ang):
   XX=            -19.4253   YY=            -18.6452   ZZ=            -23.9692
   XY=              0.0000   XZ=              0.0000   YZ=              0.0000

 \\#P ROCCSD(T)=(maxcyc=150, Full, SaveAmplitudes, ReadAmplitudes)/Gen
 818743\CCSD=-102.9721407\CCSD(T)=-103.0243022\RMSD=9.075e-09\PG=C*V [C
 Normal termination of Gaussian 16 at Wed Apr  4 08:04:22 2018.
