 Gaussian 16, Revision A.03,
 Gaussian 16:  ES64L-G16RevA.03 25-Dec-2016

 ----------------------------------------------------------------------
 #P ROCCSD(T)=(MaxCyc=150, FrzINGC)/Gen SCF=(maxcycle=400, vshift=200)
 Integral(DKHSO, NoXCTest) Pop=Regular MaxDisk=500GB Guess=Read IOp(5/1
 5=2)
 ----------------------------------------------------------------------

 ---
 CoH
 ---
 Symbolic Z-matrix:
 Charge =  0 Multiplicity = 3

                         Standard orientation:
 ---------------------------------------------------------------------
 Center     Atomic      Atomic             Coordinates (Angstroms)
 Number     Number       Type             X           Y           Z
 ---------------------------------------------------------------------
      1         27           0        0.000000    0.000000    0.057143
      2          1           0        0.000000    0.000000   -1.542857
 ---------------------------------------------------------------------

 SCF Done:  E(ROHF) =  -1392.36010746     A.U. after   72 cycles
 E2 =    -0.8525344087D+00 EUMP2 =    -0.13932126418707D+04
 CCSD(T)
 CCSD(T)= -0.13931797274D+04

 Unable to determine electronic state:  partially filled degenerate orbitals.
 Alpha  occ. eigenvalues -- -285.58675 -35.27796 -30.04890 -30.04890 -30.04614
 Alpha  occ. eigenvalues --   -4.49459  -2.93216  -2.93216  -2.93171  -0.48968
 Alpha  occ. eigenvalues --   -0.48741  -0.44250  -0.43920  -0.43920  -0.32745
 Alpha virt. eigenvalues --   -0.00124   0.02659   0.02659   0.03392   0.04830
 Alpha virt. eigenvalues --    0.09415   0.09415   0.10166   0.11282   0.11325
 Alpha virt. eigenvalues --    0.11536   0.11536   0.11592   0.18836   0.24907

 Mulliken charges and spin densities:
               1          2
     1  Co   0.371051   1.983332
     2  H   -0.371051   0.016668
 Sum of Mulliken charges =  -0.00000   2.00000

 Dipole moment (field-independent basis, Debye):
    X=              0.0000    Y=              0.0000    Z=              4.4894  Tot=              4.4894
 Quadrupole moment (field-independent basis, Debye-Ang):
   XX=            -14.1871   YY=            -14.1871   ZZ=            -18.4734
   XY=              0.0000   XZ=              0.0000   YZ=              0.0000

 \#P ROCCSD(T)=(MaxCyc=150, FrzINGC)/Gen SCF=(maxcycle=400, vshift=200)
 \PMP2-0=-1393.2126419\MP4SDQ=-1393.1805124\CCSD=-1393.1500831\CCSD(T)=
 Normal termination of Gaussian 16 at Sat Apr 21 22:22:59 2018.
