 Gaussian 16, Revision A.03,
 Gaussian 16:  ES64L-G16RevA.03 25-Dec-2016

 ----------------------------------------------------------------------
 #P ROCCSD(T)=(MaxCyc=150, Full)/Gen SCF=(maxcycle=400, vshift=200) Pse
 udo=Read Integral(NoXCTest) Pop=Regular MaxDisk=500GB Guess=Read IOp(5
 /15=2)
 ----------------------------------------------------------------------

 ---
 ZnH
 ---
 Symbolic Z-matrix:
 Charge =  0 Multiplicity = 2

                         Standard orientation:
 ---------------------------------------------------------------------
 Center     Atomic      Atomic             Coordinates (Angstroms)
 Number     Number       Type             X           Y           Z
 ---------------------------------------------------------------------
      1         30           0        0.000000    0.000000    0.035484
      2          1           0        0.000000    0.000000   -1.064516
 ---------------------------------------------------------------------

 SCF Done:  E(ROHF) =  -226.444805612     A.U. after   20 cycles
 E2 =    -0.1144724430D+01 EUMP2 =    -0.22758953004126D+03
 CCSD(T)
 CCSD(T)= -0.22753613554D+03

 The electronic state is 2-SG.
 Alpha  occ. eigenvalues --   -5.60043  -3.90301  -3.88768  -3.88768  -0.85333
 Alpha  occ. eigenvalues --   -0.81342  -0.81342  -0.80869  -0.80869  -0.49172
 Alpha  occ. eigenvalues --   -0.26522
 Alpha virt. eigenvalues --    0.01972   0.01972   0.02026   0.03396   0.06353
 Alpha virt. eigenvalues --    0.06353   0.07003   0.11975   0.13812   0.15288
 Alpha virt. eigenvalues --    0.15288   0.15574   0.15574   0.19381   0.20090

 Mulliken charges and spin densities:
               1          2
     1  Zn   0.354596   0.961870
     2  H   -0.354596   0.038130
 Sum of Mulliken charges =  -0.00000   1.00000

 Dipole moment (field-independent basis, Debye):
    X=              0.0000    Y=              0.0000    Z=             -0.4374  Tot=              0.4374
 Quadrupole moment (field-independent basis, Debye-Ang):
   XX=            -14.2714   YY=            -14.2714   ZZ=            -20.2542
   XY=              0.0000   XZ=              0.0000   YZ=              0.0000

 \\#P ROCCSD(T)=(MaxCyc=150, Full)/Gen SCF=(maxcycle=400, vshift=200) P
 Normal termination of Gaussian 16 at Mon Apr 30 13:10:33 2018.
