 Gaussian 16, Revision A.03,
 Gaussian 16:  ES64L-G16RevA.03 25-Dec-2016

 ----------------------------------------------------------------------
 #P ROCCSD(T)=(MaxCyc=150, Full)/Gen SCF=(maxcycle=400, vshift=200) Pse
 udo=Read Integral(NoXCTest) Pop=Regular MaxDisk=500GB Guess=Read IOp(5
 /15=2)
 ----------------------------------------------------------------------

 ---
 ZnH
 ---
 Symbolic Z-matrix:
 Charge =  0 Multiplicity = 2

                         Standard orientation:
 ---------------------------------------------------------------------
 Center     Atomic      Atomic             Coordinates (Angstroms)
 Number     Number       Type             X           Y           Z
 ---------------------------------------------------------------------
      1         30           0        0.000000    0.000000    0.035484
      2          1           0        0.000000    0.000000   -1.064516
 ---------------------------------------------------------------------

 SCF Done:  E(ROHF) =  -226.442705936     A.U. after   23 cycles
 E2 =    -0.1063788153D+01 EUMP2 =    -0.22750649408862D+03
 CCSD(T)
 CCSD(T)= -0.22745604872D+03

 The electronic state is 2-SG.
 Alpha  occ. eigenvalues --   -5.60063  -3.90318  -3.88789  -3.88789  -0.85332
 Alpha  occ. eigenvalues --   -0.81339  -0.81339  -0.80871  -0.80871  -0.49175
 Alpha  occ. eigenvalues --   -0.26520
 Alpha virt. eigenvalues --    0.02162   0.02162   0.02485   0.04180   0.07711
 Alpha virt. eigenvalues --    0.07711   0.08980   0.16359   0.19164   0.24421
 Alpha virt. eigenvalues --    0.24421   0.25211   0.25211   0.27280   0.27859

 Mulliken charges and spin densities:
               1          2
     1  Zn   0.299347   0.960444
     2  H   -0.299347   0.039556
 Sum of Mulliken charges =  -0.00000   1.00000

 Dipole moment (field-independent basis, Debye):
    X=              0.0000    Y=              0.0000    Z=             -0.4340  Tot=              0.4340
 Quadrupole moment (field-independent basis, Debye-Ang):
   XX=            -14.2806   YY=            -14.2806   ZZ=            -20.2435
   XY=              0.0000   XZ=              0.0000   YZ=              0.0000

 \\#P ROCCSD(T)=(MaxCyc=150, Full)/Gen SCF=(maxcycle=400, vshift=200) P
 CCSD(T)=-227.4560487\RMSD=5.576e-09\PG=C*V [C*(H1Zn1)]\\@
 Normal termination of Gaussian 16 at Sun Apr 22 03:55:12 2018.
