 Gaussian 16, Revision A.03,
 Gaussian 16:  ES64L-G16RevA.03 25-Dec-2016

 ----------------------------------------------------------------------
 #P ROCCSD(T)=(MaxCyc=150, Full)/Gen SCF=(maxcycle=400, vshift=200) Pse
 udo=Read Integral(NoXCTest) Pop=Regular MaxDisk=500GB Guess=Read IOp(5
 /15=2)
 ----------------------------------------------------------------------

 ---
 ZnH
 ---
 Symbolic Z-matrix:
 Charge =  0 Multiplicity = 2

                         Standard orientation:
 ---------------------------------------------------------------------
 Center     Atomic      Atomic             Coordinates (Angstroms)
 Number     Number       Type             X           Y           Z
 ---------------------------------------------------------------------
      1         30           0        0.000000    0.000000    0.035484
      2          1           0        0.000000    0.000000   -1.064516
 ---------------------------------------------------------------------

 SCF Done:  E(ROHF) =  -226.444471057     A.U. after   23 cycles
 E2 =    -0.1118371218D+01 EUMP2 =    -0.22756284227537D+03
 CCSD(T)
 CCSD(T)= -0.22751147961D+03

 The electronic state is 2-SG.
 Alpha  occ. eigenvalues --   -5.60032  -3.90302  -3.88770  -3.88770  -0.85336
 Alpha  occ. eigenvalues --   -0.81342  -0.81342  -0.80871  -0.80871  -0.49171
 Alpha  occ. eigenvalues --   -0.26521
 Alpha virt. eigenvalues --    0.02036   0.02036   0.02301   0.03848   0.06777
 Alpha virt. eigenvalues --    0.06777   0.08083   0.14797   0.17570   0.17781
 Alpha virt. eigenvalues --    0.17781   0.18272   0.18272   0.22144   0.22609

 Mulliken charges and spin densities:
               1          2
     1  Zn   0.253171   0.947803
     2  H   -0.253171   0.052197
 Sum of Mulliken charges =  -0.00000   1.00000

 Dipole moment (field-independent basis, Debye):
    X=              0.0000    Y=              0.0000    Z=             -0.4367  Tot=              0.4367
 Quadrupole moment (field-independent basis, Debye-Ang):
   XX=            -14.2740   YY=            -14.2740   ZZ=            -20.2527
   XY=              0.0000   XZ=              0.0000   YZ=              0.0000

 \\#P ROCCSD(T)=(MaxCyc=150, Full)/Gen SCF=(maxcycle=400, vshift=200) P
 Normal termination of Gaussian 16 at Sun Apr 22 04:47:11 2018.
