 Gaussian 16, Revision A.03,
 Gaussian 16:  ES64L-G16RevA.03 25-Dec-2016

 ----------------------------------------------------------------------
 #P ROCCSD(T)=(maxcyc=150, Full, ReadAmplitudes)/Gen 5d 7f SCF=(maxcycl
 es=300) Integral(NoXCTest) MaxDisk=500GB Pop=Regular Pseudo=Read Guess
 =Read
 ----------------------------------------------------------------------

 ---
 CrH
 ---
 Symbolic Z-matrix:
 Charge =  0 Multiplicity = 6

                         Standard orientation:
 ---------------------------------------------------------------------
 Center     Atomic      Atomic             Coordinates (Angstroms)
 Number     Number       Type             X           Y           Z
 ---------------------------------------------------------------------
      1         24           0        0.000000    0.000000    0.080000
      2          1           0        0.000000    0.000000   -1.920000
 ---------------------------------------------------------------------

 SCF Done:  E(ROHF) =  -86.8695725043     A.U. after   23 cycles
 E2 =    -0.5719520157D+00 EUMP2 =    -0.87441524519984D+02
 CCSD(T)
 CCSD(T)= -0.87491599523D+02

 The electronic state is 6-SG.
 Alpha  occ. eigenvalues --   -3.70504  -2.46925  -2.46925  -2.41831  -0.57781
 Alpha  occ. eigenvalues --   -0.57781  -0.54190  -0.54190  -0.37939  -0.26857
 Alpha virt. eigenvalues --    0.00921   0.00921   0.01776   0.02368   0.04289
 Alpha virt. eigenvalues --    0.04502   0.04502   0.04876   0.04876   0.05225
 Alpha virt. eigenvalues --    0.05225   0.06384   0.08597   0.10949   0.15160

 Mulliken charges and spin densities:
               1          2
     1  Cr   0.343065   4.968886
     2  H   -0.343065   0.031114
 Sum of Mulliken charges =  -0.00000   5.00000

 Dipole moment (field-independent basis, Debye):
    X=              0.0000    Y=              0.0000    Z=              2.8655  Tot=              2.8655
 Quadrupole moment (field-independent basis, Debye-Ang):
   XX=            -17.1152   YY=            -17.1152   ZZ=            -27.0075
   XY=              0.0000   XZ=              0.0000   YZ=              0.0000

 \\#P ROCCSD(T)=(maxcyc=150, Full, ReadAmplitudes)/Gen 5d 7f SCF=(maxcy
 .4415245\CCSD=-87.4747885\CCSD(T)=-87.4915995\RMSD=6.042e-09\PG=C*V [C
 Normal termination of Gaussian 16 at Mon Feb 26 18:06:58 2018.
