 Gaussian 16, Revision A.03,
 Gaussian 16:  ES64L-G16RevA.03 25-Dec-2016

 ----------------------------------------------------------------------
 #P ROCCSD(T)=(maxcyc=150, Full)/Gen 5d 7f SCF=(maxcycles=300) Integral
 (NoXCTest) MaxDisk=500GB Pop=Regular Pseudo=Read IOp(5/15=2) Guess=Rea
 d
 ----------------------------------------------------------------------

 ---
 ScH
 ---
 Symbolic Z-matrix:
 Charge =  0 Multiplicity = 1

                         Standard orientation:
 ---------------------------------------------------------------------
 Center     Atomic      Atomic             Coordinates (Angstroms)
 Number     Number       Type             X           Y           Z
 ---------------------------------------------------------------------
      1         21           0        0.000000    0.000000    0.077273
      2          1           0        0.000000    0.000000   -1.622727
 ---------------------------------------------------------------------

 SCF Done:  E(ROHF) =  -46.7888814064     A.U. after   11 cycles
 E2 =    -0.4120856838D+00 EUMP2 =    -0.47200967090104D+02
 CCSD(T)
 CCSD(T)= -0.47245483404D+02

 The electronic state is 1-SG.
 Alpha  occ. eigenvalues --   -2.74533  -1.65260  -1.65107  -1.65107  -0.41838
 Alpha  occ. eigenvalues --   -0.22916
 Alpha virt. eigenvalues --    0.01178   0.01178   0.01648   0.02170   0.03539
 Alpha virt. eigenvalues --    0.03855   0.03855   0.03919   0.03919   0.04572
 Alpha virt. eigenvalues --    0.04572   0.04898   0.08627   0.08627   0.09322

 Mulliken charges and spin densities:
               1          2
     1  Sc   0.378517   0.000000
     2  H   -0.378517   0.000000
 Sum of Mulliken charges =   0.00000   0.00000

 Dipole moment (field-independent basis, Debye):
    X=              0.0000    Y=              0.0000    Z=              1.1365  Tot=              1.1365
 Quadrupole moment (field-independent basis, Debye-Ang):
   XX=            -23.1336   YY=            -23.1336   ZZ=            -26.2062
   XY=              0.0000   XZ=              0.0000   YZ=              0.0000

 P ROCCSD(T)=(maxcyc=150, Full)/Gen 5d 7f SCF=(maxcycles=300) Integral(
 MP2-0=-47.2009671\MP4SDQ=-47.2275373\CCSD=-47.2272602\CCSD(T)=-47.2454
 Normal termination of Gaussian 16 at Wed Feb 14 03:05:36 2018.
