 Gaussian 16, Revision A.03,
 Gaussian 16:  ES64L-G16RevA.03 25-Dec-2016

 ----------------------------------------------------------------------
 #P ROCCSD(T)=(maxcyc=150, Full, SaveAmplitudes, ReadAmplitudes)/Gen 5d
  7f SCF=(maxcycles=300) Integral(NoXCTest) MaxDisk=500GB Pop=Regular P
 seudo=Read Guess=Read IOp(5/15=2)
 ----------------------------------------------------------------------

 ---
 CrO
 ---
 Symbolic Z-matrix:
 Charge =  0 Multiplicity = 5

                         Standard orientation:
 ---------------------------------------------------------------------
 Center     Atomic      Atomic             Coordinates (Angstroms)
 Number     Number       Type             X           Y           Z
 ---------------------------------------------------------------------
      1         24           0        0.000000    0.000000    0.350000
      2          8           0        0.000000    0.000000   -1.050000
 ---------------------------------------------------------------------

 SCF Done:  E(ROHF) =  -101.781824087     A.U. after   29 cycles
 E2 =    -0.8761384477D+00 EUMP2 =    -0.10265796253462D+03
 CCSD(T)
 CCSD(T)= -0.10267552714D+03

 Unable to determine electronic state:  an orbital has unidentified symmetry.
 Alpha  occ. eigenvalues --   -3.73696  -2.50183  -2.45982  -2.45355  -1.23889
 Alpha  occ. eigenvalues --   -0.65379  -0.56969  -0.53748  -0.53515  -0.52095
 Alpha  occ. eigenvalues --   -0.38570  -0.28490
 Alpha virt. eigenvalues --    0.01068   0.01875   0.02188   0.03056   0.04927
 Alpha virt. eigenvalues --    0.05878   0.06793   0.07672   0.07678   0.07968
 Alpha virt. eigenvalues --    0.08502   0.09189   0.12532   0.15857   0.17895

 Mulliken charges and spin densities:
               1          2
     1  Cr   0.961519   3.802572
     2  O   -0.961519   0.197428
 Sum of Mulliken charges =  -0.00000   4.00000

 Dipole moment (field-independent basis, Debye):
    X=              0.0000    Y=              0.0000    Z=              3.0801  Tot=              3.0801
 Quadrupole moment (field-independent basis, Debye-Ang):
   XX=            -21.0440   YY=            -19.7644   ZZ=            -24.2124
   XY=              0.0000   XZ=              0.0000   YZ=              0.0000

 \\#P ROCCSD(T)=(maxcyc=150, Full, SaveAmplitudes, ReadAmplitudes)/Gen
 SD=-102.6310228\CCSD(T)=-102.6755271\RMSD=4.401e-09\PG=C*V [C*(O1Cr1)]
 Normal termination of Gaussian 16 at Fri Mar  9 16:16:30 2018.
