 Gaussian 16, Revision A.03,
 Gaussian 16:  ES64L-G16RevA.03 25-Dec-2016

 ----------------------------------------------------------------------
 #P ROCCSD(T)=(maxcyc=150, Full, SaveAmplitudes, ReadAmplitudes)/Gen 5d
  7f SCF=(maxcycles=300) Integral(NoXCTest) MaxDisk=500GB Pop=Regular P
 seudo=Read Guess=Read
 ----------------------------------------------------------------------

 ---
 TiO
 ---
 Symbolic Z-matrix:
 Charge =  0 Multiplicity = 3

                         Standard orientation:
 ---------------------------------------------------------------------
 Center     Atomic      Atomic             Coordinates (Angstroms)
 Number     Number       Type             X           Y           Z
 ---------------------------------------------------------------------
      1         22           0        0.000000    0.000000    0.426667
      2          8           0        0.000000    0.000000   -1.173333
 ---------------------------------------------------------------------

 SCF Done:  E(ROHF) =  -73.5368578846     A.U. after   19 cycles
 E2 =    -0.7757601961D+00 EUMP2 =    -0.74312618080680D+02
 CCSD(T)
 CCSD(T)= -0.74339913660D+02

 Unable to determine electronic state:  an orbital has unidentified symmetry.
 Alpha  occ. eigenvalues --   -3.03866  -1.90479  -1.90479  -1.89438  -1.16475
 Alpha  occ. eigenvalues --   -0.46681  -0.45627  -0.45045  -0.45045  -0.26427
 Alpha virt. eigenvalues --    0.00382   0.00382   0.01422   0.02356   0.03669
 Alpha virt. eigenvalues --    0.03669   0.03700   0.03771   0.04175   0.04175
 Alpha virt. eigenvalues --    0.04207   0.05301   0.09159   0.10314   0.11595

 Mulliken charges and spin densities:
               1          2
     1  Ti   1.022182   1.968788
     2  O   -1.022182   0.031212
 Sum of Mulliken charges =  -0.00000   2.00000

 Dipole moment (field-independent basis, Debye):
    X=              0.0000    Y=              0.0000    Z=              4.2329  Tot=              4.2329
 Quadrupole moment (field-independent basis, Debye-Ang):
   XX=            -21.4066   YY=            -21.4066   ZZ=            -28.8600
   XY=              0.0000   XZ=              0.0000   YZ=              0.0000

 \\#P ROCCSD(T)=(maxcyc=150, Full, SaveAmplitudes, ReadAmplitudes)/Gen
 -0=-74.3126181\CCSD=-74.2936717\CCSD(T)=-74.3399137\RMSD=1.695e-09\PG=
 Normal termination of Gaussian 16 at Mon Mar 12 15:39:10 2018.
