 Gaussian 16, Revision A.03,
 Gaussian 16:  ES64L-G16RevA.03 25-Dec-2016

 ----------------------------------------------------------------------
 #P ROCCSD(T)=(MaxCyc=150, Full)/Gen SCF=(maxcycle=400, vshift=200) Pse
 udo=Read Integral(NoXCTest) Pop=Regular MaxDisk=500GB Guess=Read IOp(5
 /15=2)
 ----------------------------------------------------------------------

 ---
 CoH
 ---
 Symbolic Z-matrix:
 Charge =  0 Multiplicity = 3

                         Standard orientation:
 ---------------------------------------------------------------------
 Center     Atomic      Atomic             Coordinates (Angstroms)
 Number     Number       Type             X           Y           Z
 ---------------------------------------------------------------------
      1         27           0        0.000000    0.000000    0.064286
      2          1           0        0.000000    0.000000   -1.735714
 ---------------------------------------------------------------------

 SCF Done:  E(ROHF) =  -145.152617873     A.U. after   81 cycles
 E2 =    -0.8453451062D+00 EUMP2 =    -0.14599796297941D+03
 CCSD(T)
 CCSD(T)= -0.14598283317D+03

 Unable to determine electronic state:  partially filled degenerate orbitals.
 Alpha  occ. eigenvalues --   -4.54224  -2.99182  -2.99182  -2.99116  -0.49737
 Alpha  occ. eigenvalues --   -0.49157  -0.44975  -0.44535  -0.44535  -0.32044
 Alpha virt. eigenvalues --   -0.00596   0.02576   0.02576   0.03546   0.04361
 Alpha virt. eigenvalues --    0.09268   0.09268   0.10087   0.11165   0.11209
 Alpha virt. eigenvalues --    0.11463   0.11463   0.11726   0.18396   0.23958

 Mulliken charges and spin densities:
               1          2
     1  Co   0.385821   1.991196
     2  H   -0.385821   0.008804
 Sum of Mulliken charges =  -0.00000   2.00000

 Dipole moment (field-independent basis, Debye):
    X=              0.0000    Y=              0.0000    Z=              4.9490  Tot=              4.9490
 Quadrupole moment (field-independent basis, Debye-Ang):
   XX=            -14.0730   YY=            -14.0730   ZZ=            -19.6026
   XY=              0.0000   XZ=              0.0000   YZ=              0.0000

 \\#P ROCCSD(T)=(MaxCyc=150, Full)/Gen SCF=(maxcycle=400, vshift=200) P
 PMP2-0=-145.997963\MP4SDQ=-145.9752773\CCSD=-145.9535529\CCSD(T)=-145.
 Normal termination of Gaussian 16 at Sat Apr 21 22:48:47 2018.
