 Gaussian 16, Revision A.03,
 Gaussian 16:  ES64L-G16RevA.03 25-Dec-2016

 ----------------------------------------------------------------------
 #P ROCCSD(T)=(MaxCyc=150, Full)/Gen SCF=(maxcycle=400, vshift=200) Pse
 udo=Read Integral(NoXCTest) Pop=Regular MaxDisk=500GB Guess=Read IOp(5
 /15=2)
 ----------------------------------------------------------------------

 ---
 CoH
 ---
 Symbolic Z-matrix:
 Charge =  0 Multiplicity = 3

                         Standard orientation:
 ---------------------------------------------------------------------
 Center     Atomic      Atomic             Coordinates (Angstroms)
 Number     Number       Type             X           Y           Z
 ---------------------------------------------------------------------
      1         27           0        0.000000    0.000000    0.064286
      2          1           0        0.000000    0.000000   -1.735714
 ---------------------------------------------------------------------

 SCF Done:  E(ROHF) =  -145.153794739     A.U. after   35 cycles
 E2 =    -0.8867555086D+00 EUMP2 =    -0.14604055024765D+03
 CCSD(T)
 CCSD(T)= -0.14602377436D+03

 Unable to determine electronic state:  partially filled degenerate orbitals.
 Alpha  occ. eigenvalues --   -4.54230  -2.99181  -2.99180  -2.99114  -0.49741
 Alpha  occ. eigenvalues --   -0.49163  -0.44982  -0.44545  -0.44545  -0.32047
 Alpha virt. eigenvalues --   -0.00607   0.02324   0.02324   0.03210   0.04080
 Alpha virt. eigenvalues --    0.06975   0.07259   0.07273   0.07551   0.07551
 Alpha virt. eigenvalues --    0.08470   0.08470   0.10302   0.17215   0.19410

 Mulliken charges and spin densities:
               1          2
     1  Co   0.363392   1.997029
     2  H   -0.363392   0.002971
 Sum of Mulliken charges =  -0.00000   2.00000

 Dipole moment (field-independent basis, Debye):
    X=              0.0000    Y=              0.0000    Z=              4.9440  Tot=              4.9440
 Quadrupole moment (field-independent basis, Debye-Ang):
   XX=            -14.0598   YY=            -14.0599   ZZ=            -19.6116
   XY=              0.0000   XZ=              0.0000   YZ=              0.0000

 \\#P ROCCSD(T)=(MaxCyc=150, Full)/Gen SCF=(maxcycle=400, vshift=200) P
 \PMP2-0=-146.0405502\MP4SDQ=-146.0142245\CCSD=-145.9929525\CCSD(T)=-14
 Normal termination of Gaussian 16 at Sat Apr 21 23:32:53 2018.
