 Gaussian 16, Revision A.03,
 Gaussian 16:  ES64L-G16RevA.03 25-Dec-2016

 ----------------------------------------------------------------------
 #P ROCCSD(T)=(MaxCyc=150, Full)/Gen SCF=(maxcycle=400, vshift=200) Pse
 udo=Read Integral(NoXCTest) Pop=Regular MaxDisk=500GB Guess=Read IOp(5
 /15=2)
 ----------------------------------------------------------------------

 ---
 CoH
 ---
 Symbolic Z-matrix:
 Charge =  0 Multiplicity = 3

                         Standard orientation:
 ---------------------------------------------------------------------
 Center     Atomic      Atomic             Coordinates (Angstroms)
 Number     Number       Type             X           Y           Z
 ---------------------------------------------------------------------
      1         27           0        0.000000    0.000000    0.064286
      2          1           0        0.000000    0.000000   -1.735714
 ---------------------------------------------------------------------

 SCF Done:  E(ROHF) =  -145.154001768     A.U. after   27 cycles
 E2 =    -0.9067217385D+00 EUMP2 =    -0.14606072350623D+03
 CCSD(T)
 CCSD(T)= -0.14604170367D+03

 Unable to determine electronic state:  partially filled degenerate orbitals.
 Alpha  occ. eigenvalues --   -4.54230  -2.99181  -2.99181  -2.99115  -0.49739
 Alpha  occ. eigenvalues --   -0.49161  -0.44987  -0.44550  -0.44550  -0.32047
 Alpha virt. eigenvalues --   -0.00635   0.02247   0.02247   0.02872   0.03532
 Alpha virt. eigenvalues --    0.06403   0.06564   0.06575   0.06883   0.06883
 Alpha virt. eigenvalues --    0.08075   0.08075   0.08958   0.13923   0.17082

 Mulliken charges and spin densities:
               1          2
     1  Co   0.335379   1.995345
     2  H   -0.335379   0.004655
 Sum of Mulliken charges =  -0.00000   2.00000

 Dipole moment (field-independent basis, Debye):
    X=              0.0000    Y=              0.0000    Z=              4.9438  Tot=              4.9438
 Quadrupole moment (field-independent basis, Debye-Ang):
   XX=            -14.0594   YY=            -14.0593   ZZ=            -19.6123
   XY=              0.0000   XZ=              0.0000   YZ=              0.0000

 \\#P ROCCSD(T)=(MaxCyc=150, Full)/Gen SCF=(maxcycle=400, vshift=200) P
 \PMP2-0=-146.0607235\MP4SDQ=-146.0312752\CCSD=-146.0103056\CCSD(T)=-14
 Normal termination of Gaussian 16 at Sat Apr 28 21:08:56 2018.
