 Gaussian 16, Revision A.03,
 Gaussian 16:  ES64L-G16RevA.03 25-Dec-2016

 ----------------------------------------------------------------------
 #P ROCCSD(T)=(maxcyc=150, Full, SaveAmplitudes, ReadAmplitudes)/Gen 5d
  7f SCF=(maxcycles=300) Integral(NoXCTest) MaxDisk=500GB Pop=Regular P
 seudo=Read Guess=Read IOp(5/15=2)
 ----------------------------------------------------------------------

 ---
 TiO
 ---
 Symbolic Z-matrix:
 Charge =  0 Multiplicity = 3

                         Standard orientation:
 ---------------------------------------------------------------------
 Center     Atomic      Atomic             Coordinates (Angstroms)
 Number     Number       Type             X           Y           Z
 ---------------------------------------------------------------------
      1         22           0        0.000000    0.000000    0.320000
      2          8           0        0.000000    0.000000   -0.880000
 ---------------------------------------------------------------------

 SCF Done:  E(ROHF) =  -73.2580416369     A.U. after   23 cycles
 E2 =    -0.7232328213D+00 EUMP2 =    -0.73981274458142D+02
 CCSD(T)
 CCSD(T)= -0.74007282703D+02

 Unable to determine electronic state:  an orbital has unidentified symmetry.
 Alpha  occ. eigenvalues --   -2.97861  -2.01398  -1.80216  -1.80216  -1.12018
 Alpha  occ. eigenvalues --   -0.65464  -0.65464  -0.54422  -0.32905  -0.20113
 Alpha virt. eigenvalues --    0.01292   0.01292   0.02110   0.02786   0.04936
 Alpha virt. eigenvalues --    0.04936   0.05035   0.05207   0.05367   0.05762
 Alpha virt. eigenvalues --    0.05762   0.08535   0.12291   0.14372   0.14877

 Mulliken charges and spin densities:
               1          2
     1  Ti   0.573124   2.060834
     2  O   -0.573124  -0.060834
 Sum of Mulliken charges =  -0.00000   2.00000

 Dipole moment (field-independent basis, Debye):
    X=              0.0000    Y=              0.0000    Z=             -0.6315  Tot=              0.6315
 Quadrupole moment (field-independent basis, Debye-Ang):
   XX=            -22.4168   YY=            -22.4168   ZZ=            -26.2830
   XY=              0.0000   XZ=              0.0000   YZ=              0.0000

 \\#P ROCCSD(T)=(maxcyc=150, Full, SaveAmplitudes, ReadAmplitudes)/Gen
 .9757616\CCSD(T)=-74.0072827\RMSD=6.181e-09\PG=C*V [C*(O1Ti1)]\\@
 Normal termination of Gaussian 16 at Mon Mar 12 14:21:52 2018.
