 Gaussian 16, Revision A.03,
 Gaussian 16:  ES64L-G16RevA.03 25-Dec-2016

 ----------------------------------------------------------------------
 #P ROCCSD(T)=(maxcyc=150, Full, SaveAmplitudes, ReadAmplitudes)/Gen 5d
  7f SCF=(maxcycles=300) Integral(NoXCTest) MaxDisk=500GB Pop=Regular P
 seudo=Read Guess=Read IOp(5/15=2)
 ----------------------------------------------------------------------

 ---
 ScO
 ---
 Symbolic Z-matrix:
 Charge =  0 Multiplicity = 2

                         Standard orientation:
 ---------------------------------------------------------------------
 Center     Atomic      Atomic             Coordinates (Angstroms)
 Number     Number       Type             X           Y           Z
 ---------------------------------------------------------------------
      1         21           0        0.000000    0.000000    0.524138
      2          8           0        0.000000    0.000000   -1.375862
 ---------------------------------------------------------------------

 SCF Done:  E(ROHF) =  -61.7922842604     A.U. after   19 cycles
 E2 =    -0.6897877723D+00 EUMP2 =    -0.62482072032713D+02
 CCSD(T)
 CCSD(T)= -0.62514000896D+02

 The electronic state is 2-SG.
 Alpha  occ. eigenvalues --   -2.71566  -1.68882  -1.68812  -1.68812  -1.10133
 Alpha  occ. eigenvalues --   -0.40310  -0.36563  -0.36563  -0.27386
 Alpha virt. eigenvalues --   -0.00868  -0.00868   0.00898   0.01960   0.03050
 Alpha virt. eigenvalues --    0.03050   0.03345   0.03345   0.04102   0.04315
 Alpha virt. eigenvalues --    0.04315   0.04901   0.06035   0.06035   0.09974

 Mulliken charges and spin densities:
               1          2
     1  Sc   1.202440   0.976653
     2  O   -1.202440   0.023347
 Sum of Mulliken charges =  -0.00000   1.00000

 Dipole moment (field-independent basis, Debye):
    X=              0.0000    Y=              0.0000    Z=              6.6300  Tot=              6.6300
 Quadrupole moment (field-independent basis, Debye-Ang):
   XX=            -22.0625   YY=            -22.0625   ZZ=            -34.2051
   XY=              0.0000   XZ=              0.0000   YZ=              0.0000

 \\#P ROCCSD(T)=(maxcyc=150, Full, SaveAmplitudes, ReadAmplitudes)/Gen
 \CCSD=-62.4671035\CCSD(T)=-62.5140009\RMSD=5.199e-09\PG=C*V [C*(O1Sc1)
 Normal termination of Gaussian 16 at Wed Feb 21 06:45:46 2018.
