 Gaussian 16, Revision A.03,
 Gaussian 16:  ES64L-G16RevA.03 25-Dec-2016

 ----------------------------------------------------------------------
 #P ROCCSD(T)=(maxcyc=150, FrzINGC)/Gen 5d 7f SCF=(maxcycles=300) Integ
 ral(NoXCTest, DKHSO) MaxDisk=500GB Pop=Regular Guess=Read
 ----------------------------------------------------------------------

 --
 Sc
 --
 Symbolic Z-matrix:
 Charge =  0 Multiplicity = 2

                         Standard orientation:
 ---------------------------------------------------------------------
 Center     Atomic      Atomic             Coordinates (Angstroms)
 Number     Number       Type             X           Y           Z
 ---------------------------------------------------------------------
      1         21           0        0.000000    0.000000    0.000000
 ---------------------------------------------------------------------

 SCF Done:  E(ROHF) =  -763.289291772     A.U. after   17 cycles
 E2 =    -0.3469308741D+00 EUMP2 =    -0.76363622264581D+03
 CCSD(T)
 CCSD(T)= -0.76367096533D+03

 Unable to determine electronic state:  an orbital has unidentified symmetry.
 Alpha  occ. eigenvalues -- -166.82350 -19.26673 -15.69115 -15.68933 -15.68933
 Alpha  occ. eigenvalues --   -2.61760  -1.61973  -1.61973  -1.58608  -0.33941
 Alpha  occ. eigenvalues --   -0.21577
 Alpha virt. eigenvalues --    0.01237   0.01335   0.01335   0.02284   0.03912
 Alpha virt. eigenvalues --    0.03921   0.03921   0.03942   0.04008   0.04781
 Alpha virt. eigenvalues --    0.04907   0.04907   0.10171   0.10494   0.10494

 Mulliken charges and spin densities:
               1          2
     1  Sc  -0.000000   1.000000
 Sum of Mulliken charges =  -0.00000   1.00000

 Dipole moment (field-independent basis, Debye):
    X=             -0.0000    Y=              0.0000    Z=              0.0000  Tot=              0.0000
 Quadrupole moment (field-independent basis, Debye-Ang):
   XX=            -23.7645   YY=            -23.4536   ZZ=            -23.7645
   XY=              0.0000   XZ=             -0.0000   YZ=             -0.0000

 P ROCCSD(T)=(maxcyc=150, FrzINGC)/Gen 5d 7f SCF=(maxcycles=300) Integr
 434\CCSD=-763.6579106\CCSD(T)=-763.6709653\RMSD=1.142e-09\PG=OH [O(Sc1
 Normal termination of Gaussian 16 at Fri Feb 16 10:49:05 2018.
