 Gaussian 16, Revision A.03,
 Gaussian 16:  ES64L-G16RevA.03 25-Dec-2016

 ----------------------------------------------------------------------
 #P ROCCSD(T)=(maxcyc=150, Full, SaveAmplitudes, ReadAmplitudes)/Gen 5d
  7f SCF=(maxcycles=300) Integral(NoXCTest) MaxDisk=500GB Pop=Regular P
 seudo=Read Guess=Read IOp(5/15=2)
 ----------------------------------------------------------------------

 ---
 TiO
 ---
 Symbolic Z-matrix:
 Charge =  0 Multiplicity = 3

                         Standard orientation:
 ---------------------------------------------------------------------
 Center     Atomic      Atomic             Coordinates (Angstroms)
 Number     Number       Type             X           Y           Z
 ---------------------------------------------------------------------
      1         22           0        0.000000    0.000000    0.453333
      2          8           0        0.000000    0.000000   -1.246667
 ---------------------------------------------------------------------

 SCF Done:  E(ROHF) =  -73.5247829411     A.U. after   23 cycles
 E2 =    -0.7469587041D+00 EUMP2 =    -0.74271741645283D+02
 CCSD(T)
 CCSD(T)= -0.74304420607D+02

 Unable to determine electronic state:  an orbital has unidentified symmetry.
 Alpha  occ. eigenvalues --   -3.06561  -1.93174  -1.93174  -1.90210  -1.15401
 Alpha  occ. eigenvalues --   -0.48419  -0.44990  -0.41977  -0.41977  -0.27723
 Alpha virt. eigenvalues --    0.00003   0.00003   0.01196   0.02459   0.03857
 Alpha virt. eigenvalues --    0.03857   0.04517   0.04847   0.05132   0.05900
 Alpha virt. eigenvalues --    0.05900   0.06360   0.09671   0.10998   0.13093

 Mulliken charges and spin densities:
               1          2
     1  Ti   0.929846   1.991070
     2  O   -0.929846   0.008930
 Sum of Mulliken charges =  -0.00000   2.00000

 Dipole moment (field-independent basis, Debye):
    X=              0.0000    Y=              0.0000    Z=              5.2220  Tot=              5.2220
 Quadrupole moment (field-independent basis, Debye-Ang):
   XX=            -21.4497   YY=            -21.4497   ZZ=            -29.5066
   XY=              0.0000   XZ=              0.0000   YZ=              0.0000

 \\#P ROCCSD(T)=(maxcyc=150, Full, SaveAmplitudes, ReadAmplitudes)/Gen
 .2561387\CCSD(T)=-74.3044206\RMSD=1.291e-09\PG=C*V [C*(O1Ti1)]\\@
 Normal termination of Gaussian 16 at Tue Mar 13 01:17:52 2018.
