 Gaussian 16, Revision A.03,
 Gaussian 16:  ES64L-G16RevA.03 25-Dec-2016

 ----------------------------------------------------------------------
 #P ROCCSD(T)=(maxcyc=150, Full)/Gen 5d 7f SCF=(maxcycles=300) Integral
 (NoXCTest) MaxDisk=500GB Pop=Regular Pseudo=Read Guess=Read
 ----------------------------------------------------------------------

 ---
 MnH
 ---
 Symbolic Z-matrix:
 Charge =  0 Multiplicity = 7

                         Standard orientation:
 ---------------------------------------------------------------------
 Center     Atomic      Atomic             Coordinates (Angstroms)
 Number     Number       Type             X           Y           Z
 ---------------------------------------------------------------------
      1         25           0        0.000000    0.000000    0.038462
      2          1           0        0.000000    0.000000   -0.961538
 ---------------------------------------------------------------------

 SCF Done:  E(ROHF) =  -103.771481391     A.U. after   22 cycles
 E2 =    -0.6463792759D+00 EUMP2 =    -0.10441786066650D+03
 CCSD(T)
 CCSD(T)= -0.10442953618D+03

 The electronic state is 7-SG.
 Alpha  occ. eigenvalues --   -4.15583  -2.81730  -2.79330  -2.79330  -0.71587
 Alpha  occ. eigenvalues --   -0.64125  -0.64125  -0.62906  -0.62906  -0.39176
 Alpha  occ. eigenvalues --   -0.21475
 Alpha virt. eigenvalues --    0.01142   0.01142   0.01717   0.03364   0.04954
 Alpha virt. eigenvalues --    0.04954   0.05811   0.05811   0.05817   0.06048
 Alpha virt. eigenvalues --    0.06048   0.07722   0.14152   0.16464   0.17516

 Mulliken charges and spin densities:
               1          2
     1  Mn   0.526138   5.762668
     2  H   -0.526138   0.237332
 Sum of Mulliken charges =  -0.00000   6.00000

 Dipole moment (field-independent basis, Debye):
    X=              0.0000    Y=              0.0000    Z=             -1.2787  Tot=              1.2787
 Quadrupole moment (field-independent basis, Debye-Ang):
   XX=            -16.1969   YY=            -16.1969   ZZ=            -25.8058
   XY=              0.0000   XZ=              0.0000   YZ=              0.0000

 \\#P ROCCSD(T)=(maxcyc=150, Full)/Gen 5d 7f SCF=(maxcycles=300) Integr
 =-104.4178607\MP4SDQ=-104.4107518\CCSD=-104.4104784\CCSD(T)=-104.42953
 Normal termination of Gaussian 16 at Mon Feb 12 16:27:41 2018.
