 Gaussian 16, Revision A.03,
 Gaussian 16:  ES64L-G16RevA.03 25-Dec-2016

 ----------------------------------------------------------------------
 #P ROCCSD(T)=(maxcyc=150, Full, SaveAmplitudes, ReadAmplitudes)/Gen 5d
  7f SCF=(maxcycles=300) Integral(NoXCTest) MaxDisk=500GB Pop=Regular P
 seudo=Read Guess=Read
 ----------------------------------------------------------------------

 ---
 MnH
 ---
 Symbolic Z-matrix:
 Charge =  0 Multiplicity = 7

                         Standard orientation:
 ---------------------------------------------------------------------
 Center     Atomic      Atomic             Coordinates (Angstroms)
 Number     Number       Type             X           Y           Z
 ---------------------------------------------------------------------
      1         25           0        0.000000    0.000000    0.046154
      2          1           0        0.000000    0.000000   -1.153846
 ---------------------------------------------------------------------

 SCF Done:  E(ROHF) =  -104.125745639     A.U. after   21 cycles
 E2 =    -0.6266688942D+00 EUMP2 =    -0.10475241453315D+03
 CCSD(T)
 CCSD(T)= -0.10477111610D+03

 The electronic state is 7-SG.
 Alpha  occ. eigenvalues --   -4.17127  -2.76646  -2.75630  -2.75630  -0.68684
 Alpha  occ. eigenvalues --   -0.64400  -0.64400  -0.64250  -0.64250  -0.41439
 Alpha  occ. eigenvalues --   -0.23501
 Alpha virt. eigenvalues --    0.01333   0.01333   0.01889   0.03195   0.05177
 Alpha virt. eigenvalues --    0.05177   0.05733   0.05828   0.05828   0.06153
 Alpha virt. eigenvalues --    0.06153   0.08173   0.14013   0.15445   0.17802

 Mulliken charges and spin densities:
               1          2
     1  Mn   0.529316   5.883001
     2  H   -0.529316   0.116999
 Sum of Mulliken charges =  -0.00000   6.00000

 Dipole moment (field-independent basis, Debye):
    X=              0.0000    Y=              0.0000    Z=             -0.3676  Tot=              0.3676
 Quadrupole moment (field-independent basis, Debye-Ang):
   XX=            -15.8956   YY=            -15.8956   ZZ=            -25.3010
   XY=              0.0000   XZ=              0.0000   YZ=              0.0000

 \\#P ROCCSD(T)=(maxcyc=150, Full, SaveAmplitudes, ReadAmplitudes)/Gen
 4.1257456\PMP2-0=-104.7524145\CCSD=-104.7529695\CCSD(T)=-104.7711161\R
 Normal termination of Gaussian 16 at Sun Feb 25 23:06:03 2018.
