 Gaussian 16, Revision A.03,
 Gaussian 16:  ES64L-G16RevA.03 25-Dec-2016

 ----------------------------------------------------------------------
 #P ROCCSD(T)=(maxcyc=150, Full)/Gen 5d 7f SCF=(maxcycles=300) Integral
 (NoXCTest) MaxDisk=500GB Pop=Regular Pseudo=Read IOp(5/15=2) Guess=Rea
 d
 ----------------------------------------------------------------------

 ---
 ScH
 ---
 Symbolic Z-matrix:
 Charge =  0 Multiplicity = 1

                         Standard orientation:
 ---------------------------------------------------------------------
 Center     Atomic      Atomic             Coordinates (Angstroms)
 Number     Number       Type             X           Y           Z
 ---------------------------------------------------------------------
      1         21           0        0.000000    0.000000    0.045455
      2          1           0        0.000000    0.000000   -0.954545
 ---------------------------------------------------------------------

 SCF Done:  E(ROHF) =  -46.5108396954     A.U. after   14 cycles
 E2 =    -0.4197213400D+00 EUMP2 =    -0.46930561035475D+02
 CCSD(T)
 CCSD(T)= -0.46969773261D+02

 The electronic state is 1-SG.
 Alpha  occ. eigenvalues --   -2.66588  -1.65914  -1.55721  -1.55721  -0.47478
 Alpha  occ. eigenvalues --   -0.21302
 Alpha virt. eigenvalues --    0.01267   0.01410   0.01410   0.02350   0.03459
 Alpha virt. eigenvalues --    0.03916   0.03916   0.03957   0.03957   0.04706
 Alpha virt. eigenvalues --    0.05027   0.05027   0.09617   0.10968   0.10968

 Mulliken charges and spin densities:
               1          2
     1  Sc   0.464273   0.000000
     2  H   -0.464273   0.000000
 Sum of Mulliken charges =  -0.00000   0.00000

 Dipole moment (field-independent basis, Debye):
    X=              0.0000    Y=              0.0000    Z=              1.2554  Tot=              1.2554
 Quadrupole moment (field-independent basis, Debye-Ang):
   XX=            -23.4937   YY=            -23.4937   ZZ=            -22.0635
   XY=              0.0000   XZ=              0.0000   YZ=              0.0000

 P ROCCSD(T)=(maxcyc=150, Full)/Gen 5d 7f SCF=(maxcycles=300) Integral(
 P2-0=-46.930561\MP4SDQ=-46.9528606\CCSD=-46.9527101\CCSD(T)=-46.969773
 Normal termination of Gaussian 16 at Tue Feb 13 15:25:52 2018.
