 Gaussian 16, Revision A.03,
 Gaussian 16:  ES64L-G16RevA.03 25-Dec-2016

 ----------------------------------------------------------------------
 #P ROCCSD(T)=(maxcyc=150, Full, SaveAmplitudes, ReadAmplitudes)/Gen 5d
  7f SCF=(maxcycles=300) Integral(NoXCTest) MaxDisk=500GB Pop=Regular P
 seudo=Read Guess=Read IOp(5/15=2)
 ----------------------------------------------------------------------

 ---
 ScO
 ---
 Symbolic Z-matrix:
 Charge =  0 Multiplicity = 2

                         Standard orientation:
 ---------------------------------------------------------------------
 Center     Atomic      Atomic             Coordinates (Angstroms)
 Number     Number       Type             X           Y           Z
 ---------------------------------------------------------------------
      1         21           0        0.000000    0.000000    0.358621
      2          8           0        0.000000    0.000000   -0.941379
 ---------------------------------------------------------------------

 SCF Done:  E(ROHF) =  -61.7046681203     A.U. after   18 cycles
 E2 =    -0.6618880262D+00 EUMP2 =    -0.62366556146410D+02
 CCSD(T)
 CCSD(T)= -0.62394917065D+02

 The electronic state is 2-SG.
 Alpha  occ. eigenvalues --   -2.58774  -1.77071  -1.53253  -1.53253  -1.06723
 Alpha  occ. eigenvalues --   -0.58002  -0.58002  -0.47238  -0.19371
 Alpha virt. eigenvalues --    0.00991   0.00991   0.02034   0.02510   0.03782
 Alpha virt. eigenvalues --    0.03782   0.03798   0.03798   0.03901   0.04788
 Alpha virt. eigenvalues --    0.04788   0.07348   0.10834   0.10834   0.11024

 Mulliken charges and spin densities:
               1          2
     1  Sc   1.231734   1.008296
     2  O   -1.231734  -0.008296
 Sum of Mulliken charges =  -0.00000   1.00000

 Dipole moment (field-independent basis, Debye):
    X=              0.0000    Y=              0.0000    Z=              0.1431  Tot=              0.1431
 Quadrupole moment (field-independent basis, Debye-Ang):
   XX=            -22.8605   YY=            -22.8605   ZZ=            -29.6368
   XY=              0.0000   XZ=              0.0000   YZ=              0.0000

 \\#P ROCCSD(T)=(maxcyc=150, Full, SaveAmplitudes, ReadAmplitudes)/Gen
 82\CCSD=-62.3652731\CCSD(T)=-62.3949171\RMSD=4.755e-09\PG=C*V [C*(O1Sc
 Normal termination of Gaussian 16 at Tue Feb 20 22:33:35 2018.
