 Gaussian 16, Revision A.03,
 Gaussian 16:  ES64L-G16RevA.03 25-Dec-2016

 ----------------------------------------------------------------------
 #P ROCCSD(T)=(maxcyc=150, Full)/Gen 5d 7f SCF=(maxcycles=300) Integral
 (NoXCTest) MaxDisk=500GB Pop=Regular Pseudo=Read IOp(5/15=2) Guess=Rea
 d
 ----------------------------------------------------------------------

 ---
 ScH
 ---
 Symbolic Z-matrix:
 Charge =  0 Multiplicity = 1

                         Standard orientation:
 ---------------------------------------------------------------------
 Center     Atomic      Atomic             Coordinates (Angstroms)
 Number     Number       Type             X           Y           Z
 ---------------------------------------------------------------------
      1         21           0        0.000000    0.000000    0.050000
      2          1           0        0.000000    0.000000   -1.050000
 ---------------------------------------------------------------------

 SCF Done:  E(ROHF) =  -46.6045519083     A.U. after   12 cycles
 E2 =    -0.4377761628D+00 EUMP2 =    -0.47042328071016D+02
 CCSD(T)
 CCSD(T)= -0.47079500324D+02

 The electronic state is 1-SG.
 Alpha  occ. eigenvalues --   -2.66834  -1.63813  -1.56854  -1.56854  -0.47243
 Alpha  occ. eigenvalues --   -0.21337
 Alpha virt. eigenvalues --    0.01296   0.01329   0.01329   0.02057   0.02881
 Alpha virt. eigenvalues --    0.02881   0.02896   0.02908   0.02908   0.04219
 Alpha virt. eigenvalues --    0.04487   0.04487   0.08276   0.08276   0.08312

 Mulliken charges and spin densities:
               1          2
     1  Sc   0.135360   0.000000
     2  H   -0.135360   0.000000
 Sum of Mulliken charges =  -0.00000   0.00000

 Dipole moment (field-independent basis, Debye):
    X=              0.0000    Y=              0.0000    Z=              0.9494  Tot=              0.9494
 Quadrupole moment (field-independent basis, Debye-Ang):
   XX=            -23.6312   YY=            -23.6312   ZZ=            -22.1771
   XY=              0.0000   XZ=              0.0000   YZ=              0.0000

 P ROCCSD(T)=(maxcyc=150, Full)/Gen 5d 7f SCF=(maxcycles=300) Integral(
 PMP2-0=-47.0423281\MP4SDQ=-47.0614615\CCSD=-47.0611574\CCSD(T)=-47.079
 Normal termination of Gaussian 16 at Tue Feb 13 17:27:35 2018.
