 Gaussian 16, Revision A.03,
 Gaussian 16:  ES64L-G16RevA.03 25-Dec-2016

 ----------------------------------------------------------------------
 #P ROCCSD(T)=(maxcyc=150, Full, SaveAmplitudes, ReadAmplitudes)/Gen 5d
  7f SCF=(maxcycles=300, VShift=400) Integral(NoXCTest) MaxDisk=500GB P
 op=Full Pseudo=Read Guess=Read
 ----------------------------------------------------------------------

 ---
 MnH
 ---
 Symbolic Z-matrix:
 Charge =  0 Multiplicity = 7

                         Standard orientation:
 ---------------------------------------------------------------------
 Center     Atomic      Atomic             Coordinates (Angstroms)
 Number     Number       Type             X           Y           Z
 ---------------------------------------------------------------------
      1         25           0        0.000000    0.000000    0.073077
      2          1           0        0.000000    0.000000   -1.826923
 ---------------------------------------------------------------------

 SCF Done:  E(ROHF) =  -103.799000213     A.U. after   29 cycles
 E2 =    -0.5974223052D+00 EUMP2 =    -0.10439642251800D+03
 CCSD(T)
 CCSD(T)= -0.10441879160D+03

 The electronic state is 7-SG.
 Alpha  occ. eigenvalues --   -4.15859  -2.77945  -2.77945  -2.77688  -0.65365
 Alpha  occ. eigenvalues --   -0.65365  -0.64728  -0.64670  -0.64670  -0.39460
 Alpha  occ. eigenvalues --   -0.26750
 Alpha virt. eigenvalues --    0.01051   0.01051   0.02169   0.02888   0.04934
 Alpha virt. eigenvalues --    0.04934   0.05605   0.05774   0.05774   0.06197
 Alpha virt. eigenvalues --    0.06197   0.09440   0.12591   0.13821   0.18045

 Mulliken charges and spin densities:
               1          2
     1  Mn   0.373823   5.952736
     2  H   -0.373823   0.047264
 Sum of Mulliken charges =  -0.00000   6.00000

 Dipole moment (field-independent basis, Debye):
    X=              0.0000    Y=              0.0000    Z=              2.0407  Tot=              2.0407
 Quadrupole moment (field-independent basis, Debye-Ang):
   XX=            -16.3654   YY=            -16.3654   ZZ=            -27.4143
   XY=              0.0000   XZ=              0.0000   YZ=              0.0000

 \\#P ROCCSD(T)=(maxcyc=150, Full, SaveAmplitudes, ReadAmplitudes)/Gen
 \PUHF=-103.7990002\PMP2-0=-104.3964225\CCSD=-104.4022862\CCSD(T)=-104.
 Normal termination of Gaussian 16 at Sat May  5 11:45:29 2018.
