 Gaussian 16, Revision A.03,
 Gaussian 16:  ES64L-G16RevA.03 25-Dec-2016

 ----------------------------------------------------------------------
 #P ROCCSD(T)=(maxcyc=150, Full)/Gen 5d 7f SCF=(maxcycles=300) Integral
 (NoXCTest) MaxDisk=500GB Pop=Regular Pseudo=Read Guess=Read
 ----------------------------------------------------------------------

 ---
 ScH
 ---
 Symbolic Z-matrix:
 Charge =  0 Multiplicity = 1

                         Standard orientation:
 ---------------------------------------------------------------------
 Center     Atomic      Atomic             Coordinates (Angstroms)
 Number     Number       Type             X           Y           Z
 ---------------------------------------------------------------------
      1         21           0        0.000000    0.000000    0.072727
      2          1           0        0.000000    0.000000   -1.527273
 ---------------------------------------------------------------------

 SCF Done:  E(ROHF) =  -46.6553199663     A.U. after    8 cycles
 E2 =    -0.4331404303D+00 EUMP2 =    -0.47088460396517D+02
 CCSD(T)
 CCSD(T)= -0.47128294999D+02

 The electronic state is 1-SG.
 Alpha  occ. eigenvalues --   -2.66699  -1.64993  -1.64508  -1.64508  -0.42983
 Alpha  occ. eigenvalues --   -0.22569
 Alpha virt. eigenvalues --    0.01188   0.01188   0.01499   0.01660   0.02612
 Alpha virt. eigenvalues --    0.02612   0.02640   0.02640   0.02668   0.04072
 Alpha virt. eigenvalues --    0.04163   0.04163   0.06948   0.07159   0.07159

 Mulliken charges and spin densities:
               1          2
     1  Sc   0.373521   0.000000
     2  H   -0.373521   0.000000
 Sum of Mulliken charges =  -0.00000   0.00000

 Dipole moment (field-independent basis, Debye):
    X=              0.0000    Y=              0.0000    Z=              0.9767  Tot=              0.9767
 Quadrupole moment (field-independent basis, Debye-Ang):
   XX=            -23.2257   YY=            -23.2257   ZZ=            -25.2864
   XY=              0.0000   XZ=              0.0000   YZ=              0.0000

 P ROCCSD(T)=(maxcyc=150, Full)/Gen 5d 7f SCF=(maxcycles=300) Integral(
 04\MP4SDQ=-47.1091042\CCSD=-47.1088523\CCSD(T)=-47.128295\RMSD=1.418e-
 Normal termination of Gaussian 16 at Tue Feb 13 02:38:31 2018.
