 Gaussian 16, Revision A.03,
 Gaussian 16:  ES64L-G16RevA.03 25-Dec-2016

 ----------------------------------------------------------------------
 #P ROCCSD(T)=(maxcyc=150, Full)/Gen 5d 7f SCF=(maxcycles=300) Integral
 (NoXCTest) MaxDisk=500GB Pop=Regular Pseudo=Read Guess=Read
 ----------------------------------------------------------------------

 ---
 ScH
 ---
 Symbolic Z-matrix:
 Charge =  0 Multiplicity = 1

                         Standard orientation:
 ---------------------------------------------------------------------
 Center     Atomic      Atomic             Coordinates (Angstroms)
 Number     Number       Type             X           Y           Z
 ---------------------------------------------------------------------
      1         21           0        0.000000    0.000000    0.050000
      2          1           0        0.000000    0.000000   -1.050000
 ---------------------------------------------------------------------

 SCF Done:  E(ROHF) =  -46.4799448492     A.U. after   12 cycles
 E2 =    -0.4340046606D+00 EUMP2 =    -0.46913949509816D+02
 CCSD(T)
 CCSD(T)= -0.46951066300D+02

 The electronic state is 1-SG.
 Alpha  occ. eigenvalues --   -2.60484  -1.64603  -1.57609  -1.57609  -0.47438
 Alpha  occ. eigenvalues --   -0.21310
 Alpha virt. eigenvalues --    0.01282   0.01334   0.01334   0.02064   0.02882
 Alpha virt. eigenvalues --    0.02882   0.02896   0.02908   0.02908   0.04211
 Alpha virt. eigenvalues --    0.04499   0.04499   0.08268   0.08268   0.08316

 Mulliken charges and spin densities:
               1          2
     1  Sc   0.090818   0.000000
     2  H   -0.090818   0.000000
 Sum of Mulliken charges =  -0.00000   0.00000

 Dipole moment (field-independent basis, Debye):
    X=              0.0000    Y=              0.0000    Z=              0.9948  Tot=              0.9948
 Quadrupole moment (field-independent basis, Debye-Ang):
   XX=            -23.6551   YY=            -23.6551   ZZ=            -22.1726
   XY=              0.0000   XZ=              0.0000   YZ=              0.0000

 P ROCCSD(T)=(maxcyc=150, Full)/Gen 5d 7f SCF=(maxcycles=300) Integral(
 139495\MP4SDQ=-46.9331494\CCSD=-46.932812\CCSD(T)=-46.9510663\RMSD=3.3
 Normal termination of Gaussian 16 at Mon Feb 12 17:04:04 2018.
