 Gaussian 16, Revision A.03,
 Gaussian 16:  ES64L-G16RevA.03 25-Dec-2016

 ----------------------------------------------------------------------
 #P ROCCSD(T)=(maxcyc=150, Full)/Gen 5d 7f SCF=(maxcycles=300) Integral
 (NoXCTest) MaxDisk=500GB Pop=Regular Pseudo=Read IOp(5/15=2) Guess=Rea
 d
 ----------------------------------------------------------------------

 ---
 ScH
 ---
 Symbolic Z-matrix:
 Charge =  0 Multiplicity = 1

                         Standard orientation:
 ---------------------------------------------------------------------
 Center     Atomic      Atomic             Coordinates (Angstroms)
 Number     Number       Type             X           Y           Z
 ---------------------------------------------------------------------
      1         21           0        0.000000    0.000000    0.100000
      2          1           0        0.000000    0.000000   -2.100000
 ---------------------------------------------------------------------

 SCF Done:  E(ROHF) =  -46.7695436868     A.U. after   10 cycles
 E2 =    -0.4215038320D+00 EUMP2 =    -0.47191047518839D+02
 CCSD(T)
 CCSD(T)= -0.47239258152D+02

 The electronic state is 1-SG.
 Alpha  occ. eigenvalues --   -2.78891  -1.69234  -1.69234  -1.69016  -0.35861
 Alpha  occ. eigenvalues --   -0.24617
 Alpha virt. eigenvalues --    0.00799   0.00799   0.01027   0.02069   0.02790
 Alpha virt. eigenvalues --    0.02790   0.02955   0.02955   0.03047   0.03491
 Alpha virt. eigenvalues --    0.03702   0.03702   0.06047   0.06047   0.07076

 Mulliken charges and spin densities:
               1          2
     1  Sc   0.271305   0.000000
     2  H   -0.271305   0.000000
 Sum of Mulliken charges =  -0.00000   0.00000

 Dipole moment (field-independent basis, Debye):
    X=              0.0000    Y=              0.0000    Z=              2.8793  Tot=              2.8793
 Quadrupole moment (field-independent basis, Debye-Ang):
   XX=            -22.8868   YY=            -22.8868   ZZ=            -30.2893
   XY=              0.0000   XZ=              0.0000   YZ=              0.0000

 P ROCCSD(T)=(maxcyc=150, Full)/Gen 5d 7f SCF=(maxcycles=300) Integral(
 PMP2-0=-47.1910475\MP4SDQ=-47.2176002\CCSD=-47.2185299\CCSD(T)=-47.239
 Normal termination of Gaussian 16 at Wed Feb 14 12:02:58 2018.
