 Gaussian 16, Revision A.03,
 Gaussian 16:  ES64L-G16RevA.03 25-Dec-2016

 ----------------------------------------------------------------------
 #P ROCCSD(T)=(maxcyc=100, Full)/Gen SCF=(maxcycle=400, symm) Pseudo=Re
 ad Integral(NoXCTest) Pop=Regular MaxDisk=500GB Guess=Permute IOp(5/15
 =2)
 ----------------------------------------------------------------------

 ---
 FeH
 ---
 Symbolic Z-matrix:
 Charge =  0 Multiplicity = 4

                         Standard orientation:
 ---------------------------------------------------------------------
 Center     Atomic      Atomic             Coordinates (Angstroms)
 Number     Number       Type             X           Y           Z
 ---------------------------------------------------------------------
      1         26           0        0.000000    0.000000    0.077778
      2          1           0        0.000000    0.000000   -2.022222
 ---------------------------------------------------------------------

 SCF Done:  E(ROHF) =  -123.564255075     A.U. after   23 cycles
 E2 =    -0.7438150087D+00 EUMP2 =    -0.12430807008336D+03
 CCSD(T)
 CCSD(T)= -0.12431963538D+03

 Unable to determine electronic state:  an orbital has unidentified symmetry.
 Alpha  occ. eigenvalues --   -4.28012  -2.76114  -2.76054  -2.76054  -0.49066
 Alpha  occ. eigenvalues --   -0.49012  -0.49012  -0.44082  -0.42906  -0.30392
 Alpha virt. eigenvalues --   -0.01537   0.02228   0.02228   0.03361   0.03577
 Alpha virt. eigenvalues --    0.08219   0.08219   0.09243   0.09895   0.09937
 Alpha virt. eigenvalues --    0.10287   0.10287   0.11400   0.16445   0.21218

 Mulliken charges and spin densities:
               1          2
     1  Fe   0.438082   2.999827
     2  H   -0.438082   0.000173
 Sum of Mulliken charges =  -0.00000   3.00000

 Dipole moment (field-independent basis, Debye):
    X=              0.0000    Y=              0.0000    Z=              5.8069  Tot=              5.8069
 Quadrupole moment (field-independent basis, Debye-Ang):
   XX=            -15.1392   YY=            -15.1392   ZZ=            -21.7684
   XY=              0.0000   XZ=              0.0000   YZ=              0.0000

 \\#P ROCCSD(T)=(maxcyc=100, Full)/Gen SCF=(maxcycle=400, symm) Pseudo=
 95562\CCSD(T)=-124.3196354\RMSD=4.961e-09\PG=C*V [C*(H1Fe1)]\\@
 Normal termination of Gaussian 16 at Mon Feb 12 21:40:03 2018.
