 Gaussian 16, Revision A.03,
 Gaussian 16:  ES64L-G16RevA.03 25-Dec-2016

 ----------------------------------------------------------------------
 #P ROCCSD(T)=(maxcyc=100, Full)/Gen SCF=(maxcycle=400, symm) Pseudo=Re
 ad Integral(NoXCTest) Pop=Regular MaxDisk=500GB Guess=Permute IOp(5/15
 =2)
 ----------------------------------------------------------------------

 ---
 FeH
 ---
 Symbolic Z-matrix:
 Charge =  0 Multiplicity = 4

                         Standard orientation:
 ---------------------------------------------------------------------
 Center     Atomic      Atomic             Coordinates (Angstroms)
 Number     Number       Type             X           Y           Z
 ---------------------------------------------------------------------
      1         26           0        0.000000    0.000000    0.077778
      2          1           0        0.000000    0.000000   -2.022222
 ---------------------------------------------------------------------

 SCF Done:  E(ROHF) =  -123.565585013     A.U. after   30 cycles
 E2 =    -0.7937057207D+00 EUMP2 =    -0.12435929073340D+03
 CCSD(T)
 CCSD(T)= -0.12436683930D+03

 Unable to determine electronic state:  an orbital has unidentified symmetry.
 Alpha  occ. eigenvalues --   -4.28017  -2.76108  -2.76049  -2.76049  -0.49070
 Alpha  occ. eigenvalues --   -0.49017  -0.49017  -0.44093  -0.42923  -0.30395
 Alpha virt. eigenvalues --   -0.01550   0.01924   0.01924   0.02585   0.03004
 Alpha virt. eigenvalues --    0.05724   0.06050   0.06062   0.06375   0.06375
 Alpha virt. eigenvalues --    0.07159   0.07159   0.09166   0.12095   0.14733

 Mulliken charges and spin densities:
               1          2
     1  Fe   0.356518   2.998667
     2  H   -0.356518   0.001333
 Sum of Mulliken charges =  -0.00000   3.00000

 Dipole moment (field-independent basis, Debye):
    X=              0.0000    Y=              0.0000    Z=              5.8037  Tot=              5.8037
 Quadrupole moment (field-independent basis, Debye-Ang):
   XX=            -15.1242   YY=            -15.1242   ZZ=            -21.7868
   XY=              0.0000   XZ=              0.0000   YZ=              0.0000

 \\#P ROCCSD(T)=(maxcyc=100, Full)/Gen SCF=(maxcycle=400, symm) Pseudo=
 92821\CCSD(T)=-124.3668393\RMSD=3.636e-09\PG=C*V [C*(H1Fe1)]\\@
 Normal termination of Gaussian 16 at Mon Feb 19 15:33:45 2018.
