 Gaussian 16, Revision A.03,
 Gaussian 16:  ES64L-G16RevA.03 25-Dec-2016

 ----------------------------------------------------------------------
 #P ROCCSD(T)=(maxcyc=100, Full)/Gen SCF=(maxcycle=400, symm) Pseudo=Re
 ad Integral(NoXCTest) Pop=Regular MaxDisk=500GB Guess=Permute IOp(5/15
 =2)
 ----------------------------------------------------------------------

 ---
 FeH
 ---
 Symbolic Z-matrix:
 Charge =  0 Multiplicity = 4

                         Standard orientation:
 ---------------------------------------------------------------------
 Center     Atomic      Atomic             Coordinates (Angstroms)
 Number     Number       Type             X           Y           Z
 ---------------------------------------------------------------------
      1         26           0        0.000000    0.000000    0.077778
      2          1           0        0.000000    0.000000   -2.022222
 ---------------------------------------------------------------------

 SCF Done:  E(ROHF) =  -123.565390294     A.U. after   41 cycles
 E2 =    -0.7794884388D+00 EUMP2 =    -0.12434487873260D+03
 CCSD(T)
 CCSD(T)= -0.12435445059D+03

 Unable to determine electronic state:  an orbital has unidentified symmetry.
 Alpha  occ. eigenvalues --   -4.28017  -2.76111  -2.76052  -2.76052  -0.49072
 Alpha  occ. eigenvalues --   -0.49019  -0.49019  -0.44089  -0.42917  -0.30394
 Alpha virt. eigenvalues --   -0.01541   0.01987   0.01987   0.03091   0.03301
 Alpha virt. eigenvalues --    0.06177   0.06599   0.06614   0.06858   0.06858
 Alpha virt. eigenvalues --    0.07539   0.07539   0.10567   0.14512   0.17161

 Mulliken charges and spin densities:
               1          2
     1  Fe   0.388486   2.999319
     2  H   -0.388486   0.000681
 Sum of Mulliken charges =  -0.00000   3.00000

 Dipole moment (field-independent basis, Debye):
    X=              0.0000    Y=              0.0000    Z=              5.8036  Tot=              5.8036
 Quadrupole moment (field-independent basis, Debye-Ang):
   XX=            -15.1262   YY=            -15.1262   ZZ=            -21.7834
   XY=              0.0000   XZ=              0.0000   YZ=              0.0000

 \\#P ROCCSD(T)=(maxcyc=100, Full)/Gen SCF=(maxcycle=400, symm) Pseudo=
 3278069\CCSD(T)=-124.3544506\RMSD=7.179e-09\PG=C*V [C*(H1Fe1)]\\@
 Normal termination of Gaussian 16 at Mon Feb 12 22:21:04 2018.
