 Gaussian 16, Revision A.03,
 Gaussian 16:  ES64L-G16RevA.03 25-Dec-2016

 ----------------------------------------------------------------------
 #P ROCCSD(T)=(maxcyc=150, Full, SaveAmplitudes, ReadAmplitudes)/Gen 5d
  7f SCF=(maxcycles=300) Integral(NoXCTest) MaxDisk=500GB Pop=Regular P
 seudo=Read Guess=Read IOp(5/15=2)
 ----------------------------------------------------------------------

 ---
 CrH
 ---
 Symbolic Z-matrix:
 Charge =  0 Multiplicity = 6

                         Standard orientation:
 ---------------------------------------------------------------------
 Center     Atomic      Atomic             Coordinates (Angstroms)
 Number     Number       Type             X           Y           Z
 ---------------------------------------------------------------------
      1         24           0        0.000000    0.000000    0.056000
      2          1           0        0.000000    0.000000   -1.344000
 ---------------------------------------------------------------------

 SCF Done:  E(ROHF) =  -86.3483012678     A.U. after   30 cycles
 E2 =    -0.5421498777D+00 EUMP2 =    -0.86890451145484D+02
 CCSD(T)
 CCSD(T)= -0.86923712012D+02

 The electronic state is 6-SG.
 Alpha  occ. eigenvalues --   -3.81298  -2.53098  -2.53098  -2.49654  -0.46134
 Alpha  occ. eigenvalues --   -0.46134  -0.45008  -0.43512  -0.43512  -0.26288
 Alpha virt. eigenvalues --    0.01499   0.01499   0.02219   0.02402   0.05710
 Alpha virt. eigenvalues --    0.05710   0.06052   0.07802   0.07802   0.08110
 Alpha virt. eigenvalues --    0.08110   0.08499   0.10112   0.18645   0.21159

 Mulliken charges and spin densities:
               1          2
     1  Cr   0.699643   4.992261
     2  H   -0.699643   0.007739
 Sum of Mulliken charges =  -0.00000   5.00000

 Dipole moment (field-independent basis, Debye):
    X=              0.0000    Y=              0.0000    Z=              1.5979  Tot=              1.5979
 Quadrupole moment (field-independent basis, Debye-Ang):
   XX=            -17.0688   YY=            -17.0688   ZZ=            -21.3746
   XY=              0.0000   XZ=              0.0000   YZ=              0.0000

 \\#P ROCCSD(T)=(maxcyc=150, Full, SaveAmplitudes, ReadAmplitudes)/Gen
 72\CCSD=-86.9057715\CCSD(T)=-86.923712\RMSD=6.732e-09\PG=C*V [C*(H1Cr1
 Normal termination of Gaussian 16 at Mon Feb 26 03:00:50 2018.
