 Gaussian 16, Revision A.03,
 Gaussian 16:  ES64L-G16RevA.03 25-Dec-2016

 ----------------------------------------------------------------------
 #P ROCCSD(T)=(maxcyc=150, Full, SaveAmplitudes, ReadAmplitudes)/Gen 5d
  7f SCF=(maxcycles=300) Integral(NoXCTest) MaxDisk=500GB Pop=Regular P
 seudo=Read Guess=Read IOp(5/15=2)
 ----------------------------------------------------------------------

 ---
 TiO
 ---
 Symbolic Z-matrix:
 Charge =  0 Multiplicity = 3

                         Standard orientation:
 ---------------------------------------------------------------------
 Center     Atomic      Atomic             Coordinates (Angstroms)
 Number     Number       Type             X           Y           Z
 ---------------------------------------------------------------------
      1         22           0        0.000000    0.000000    0.320000
      2          8           0        0.000000    0.000000   -0.880000
 ---------------------------------------------------------------------

 SCF Done:  E(ROHF) =  -73.1266931182     A.U. after   24 cycles
 E2 =    -0.7217435250D+00 EUMP2 =    -0.73848436643164D+02
 CCSD(T)
 CCSD(T)= -0.73874616704D+02

 Unable to determine electronic state:  an orbital has unidentified symmetry.
 Alpha  occ. eigenvalues --   -2.96252  -2.01580  -1.80504  -1.80504  -1.12110
 Alpha  occ. eigenvalues --   -0.65686  -0.65686  -0.54544  -0.32861  -0.19981
 Alpha virt. eigenvalues --    0.01272   0.01272   0.02093   0.02810   0.04919
 Alpha virt. eigenvalues --    0.04919   0.05030   0.05200   0.05363   0.05755
 Alpha virt. eigenvalues --    0.05755   0.08506   0.12374   0.14308   0.14852

 Mulliken charges and spin densities:
               1          2
     1  Ti   0.571140   2.060787
     2  O   -0.571140  -0.060787
 Sum of Mulliken charges =  -0.00000   2.00000

 Dipole moment (field-independent basis, Debye):
    X=              0.0000    Y=              0.0000    Z=             -0.7118  Tot=              0.7118
 Quadrupole moment (field-independent basis, Debye-Ang):
   XX=            -22.5383   YY=            -22.5383   ZZ=            -26.4856
   XY=              0.0000   XZ=              0.0000   YZ=              0.0000

 \\#P ROCCSD(T)=(maxcyc=150, Full, SaveAmplitudes, ReadAmplitudes)/Gen
 .8432654\CCSD(T)=-73.8746167\RMSD=3.119e-09\PG=C*V [C*(O1Ti1)]\\@
 Normal termination of Gaussian 16 at Sat Mar 10 18:18:47 2018.
