 Gaussian 16, Revision A.03,
 Gaussian 16:  ES64L-G16RevA.03 25-Dec-2016

 ----------------------------------------------------------------------
 #P ROCCSD(T)=(MaxCyc=150, Full)/Gen SCF=(maxcycle=400) Pseudo=Read Int
 egral(NoXCTest) Pop=Regular MaxDisk=500GB Guess=Read IOp(5/15=2)
 ----------------------------------------------------------------------

 ---
 CuH
 ---
 Symbolic Z-matrix:
 Charge =  0 Multiplicity = 1

                         Standard orientation:
 ---------------------------------------------------------------------
 Center     Atomic      Atomic             Coordinates (Angstroms)
 Number     Number       Type             X           Y           Z
 ---------------------------------------------------------------------
      1         29           0        0.000000    0.000000    0.053333
      2          1           0        0.000000    0.000000   -1.546667
 ---------------------------------------------------------------------

 SCF Done:  E(ROHF) =  -196.533434599     A.U. after   10 cycles
 E2 =    -0.1148834933D+01 EUMP2 =    -0.19768226953256D+03
 CCSD(T)
 CCSD(T)= -0.19760087720D+03

 The electronic state is 1-SG.
 Alpha  occ. eigenvalues --   -5.24437  -3.36337  -3.36146  -3.36146  -0.49927
 Alpha  occ. eigenvalues --   -0.49681  -0.49681  -0.49679  -0.49679  -0.33733
 Alpha virt. eigenvalues --   -0.00074   0.02615   0.02615   0.03328   0.04825
 Alpha virt. eigenvalues --    0.08894   0.08915   0.08915   0.13430   0.13523
 Alpha virt. eigenvalues --    0.13523   0.13823   0.13823   0.19654   0.22015

 Mulliken charges and spin densities:
               1          2
     1  Cu   0.352533   0.000000
     2  H   -0.352533   0.000000
 Sum of Mulliken charges =  -0.00000   0.00000

 Dipole moment (field-independent basis, Debye):
    X=              0.0000    Y=              0.0000    Z=              4.1758  Tot=              4.1758
 Quadrupole moment (field-independent basis, Debye-Ang):
   XX=            -13.6123   YY=            -13.6123   ZZ=            -16.5914
   XY=              0.0000   XZ=              0.0000   YZ=              0.0000

 P ROCCSD(T)=(MaxCyc=150, Full)/Gen SCF=(maxcycle=400) Pseudo=Read Inte
 2-0=-197.6822695\MP4SDQ=-197.6366331\CCSD=-197.5620239\CCSD(T)=-197.60
 Normal termination of Gaussian 16 at Wed Apr  4 23:56:09 2018.
