 Gaussian 16, Revision A.03,
 Gaussian 16:  ES64L-G16RevA.03 25-Dec-2016

 ----------------------------------------------------------------------
 #P ROCCSD(T)=(MaxCyc=150, Full)/Gen SCF=(maxcycle=400) Pseudo=Read Int
 egral(NoXCTest) Pop=Regular MaxDisk=500GB Guess=Read IOp(5/15=2)
 ----------------------------------------------------------------------

 ---
 CuH
 ---
 Symbolic Z-matrix:
 Charge =  0 Multiplicity = 1

                         Standard orientation:
 ---------------------------------------------------------------------
 Center     Atomic      Atomic             Coordinates (Angstroms)
 Number     Number       Type             X           Y           Z
 ---------------------------------------------------------------------
      1         29           0        0.000000    0.000000    0.053333
      2          1           0        0.000000    0.000000   -1.546667
 ---------------------------------------------------------------------

 SCF Done:  E(ROHF) =  -196.533273214     A.U. after    7 cycles
 E2 =    -0.1173779678D+01 EUMP2 =    -0.19770705289146D+03
 CCSD(T)
 CCSD(T)= -0.19762342954D+03

 The electronic state is 1-SG.
 Alpha  occ. eigenvalues --   -5.24443  -3.36342  -3.36151  -3.36151  -0.49928
 Alpha  occ. eigenvalues --   -0.49683  -0.49683  -0.49681  -0.49681  -0.33735
 Alpha virt. eigenvalues --   -0.00129   0.02531   0.02531   0.03044   0.04090
 Alpha virt. eigenvalues --    0.07685   0.08551   0.08551   0.12146   0.12146
 Alpha virt. eigenvalues --    0.12174   0.12414   0.12414   0.15002   0.18516

 Mulliken charges and spin densities:
               1          2
     1  Cu   0.309249   0.000000
     2  H   -0.309249   0.000000
 Sum of Mulliken charges =   0.00000   0.00000

 Dipole moment (field-independent basis, Debye):
    X=              0.0000    Y=              0.0000    Z=              4.1740  Tot=              4.1740
 Quadrupole moment (field-independent basis, Debye-Ang):
   XX=            -13.6109   YY=            -13.6109   ZZ=            -16.5938
   XY=              0.0000   XZ=              0.0000   YZ=              0.0000

 P ROCCSD(T)=(MaxCyc=150, Full)/Gen SCF=(maxcycle=400) Pseudo=Read Inte
 2-0=-197.7070529\MP4SDQ=-197.6579336\CCSD=-197.583813\CCSD(T)=-197.623
 Normal termination of Gaussian 16 at Thu Apr  5 02:48:14 2018.
