 Gaussian 16, Revision A.03,
 Gaussian 16:  ES64L-G16RevA.03 25-Dec-2016

 ----------------------------------------------------------------------
 #P ROCCSD(T)=(MaxCyc=150, Full)/Gen SCF=(maxcycle=400) Pseudo=Read Int
 egral(NoXCTest) Pop=Regular MaxDisk=500GB Guess=Read IOp(5/15=2)
 ----------------------------------------------------------------------

 ---
 CuH
 ---
 Symbolic Z-matrix:
 Charge =  0 Multiplicity = 1

                         Standard orientation:
 ---------------------------------------------------------------------
 Center     Atomic      Atomic             Coordinates (Angstroms)
 Number     Number       Type             X           Y           Z
 ---------------------------------------------------------------------
      1         29           0        0.000000    0.000000    0.053333
      2          1           0        0.000000    0.000000   -1.546667
 ---------------------------------------------------------------------

 SCF Done:  E(ROHF) =  -196.530690663     A.U. after   11 cycles
 E2 =    -0.1096822873D+01 EUMP2 =    -0.19762751353597D+03
 CCSD(T)
 CCSD(T)= -0.19754760298D+03

 The electronic state is 1-SG.
 Alpha  occ. eigenvalues --   -5.24451  -3.36360  -3.36165  -3.36165  -0.49927
 Alpha  occ. eigenvalues --   -0.49674  -0.49674  -0.49673  -0.49673  -0.33729
 Alpha virt. eigenvalues --   -0.00060   0.02908   0.02908   0.03674   0.05169
 Alpha virt. eigenvalues --    0.10006   0.10283   0.10283   0.17163   0.19688
 Alpha virt. eigenvalues --    0.19688   0.20248   0.20248   0.20906   0.25895

 Mulliken charges and spin densities:
               1          2
     1  Cu   0.376878   0.000000
     2  H   -0.376878   0.000000
 Sum of Mulliken charges =  -0.00000   0.00000

 Dipole moment (field-independent basis, Debye):
    X=              0.0000    Y=              0.0000    Z=              4.1855  Tot=              4.1855
 Quadrupole moment (field-independent basis, Debye-Ang):
   XX=            -13.6229   YY=            -13.6229   ZZ=            -16.5737
   XY=              0.0000   XZ=              0.0000   YZ=              0.0000

 P ROCCSD(T)=(MaxCyc=150, Full)/Gen SCF=(maxcycle=400) Pseudo=Read Inte
 2-0=-197.6275135\MP4SDQ=-197.5862094\CCSD=-197.5108221\CCSD(T)=-197.54
 Normal termination of Gaussian 16 at Wed Apr  4 23:00:43 2018.
