 Gaussian 16, Revision A.03,
 Gaussian 16:  ES64L-G16RevA.03 25-Dec-2016

 ----------------------------------------------------------------------
 #P ROCCSD(T)=(maxcyc=150, Full, SaveAmplitudes, ReadAmplitudes)/Gen 5d
  7f SCF=(maxcycles=300) Integral(NoXCTest) MaxDisk=500GB Pop=Regular P
 seudo=Read Guess=Read IOp(5/15=2)
 ----------------------------------------------------------------------

 ---
 MnO
 ---
 Symbolic Z-matrix:
 Charge =  0 Multiplicity = 6

                         Standard orientation:
 ---------------------------------------------------------------------
 Center     Atomic      Atomic             Coordinates (Angstroms)
 Number     Number       Type             X           Y           Z
 ---------------------------------------------------------------------
      1         25           0        0.000000    0.000000    0.363636
      2          8           0        0.000000    0.000000   -1.136364
 ---------------------------------------------------------------------

 SCF Done:  E(ROHF) =  -119.326009343     A.U. after   31 cycles
 E2 =    -0.9392903380D+00 EUMP2 =    -0.12026529968051D+03
 CCSD(T)
 CCSD(T)= -0.12028164003D+03

 The electronic state is 6-SG.
 Alpha  occ. eigenvalues --   -4.09417  -2.75535  -2.75535  -2.73209  -1.19675
 Alpha  occ. eigenvalues --   -0.67794  -0.67794  -0.63635  -0.63635  -0.53373
 Alpha  occ. eigenvalues --   -0.38770  -0.38770  -0.33610
 Alpha virt. eigenvalues --   -0.00691   0.01961   0.01961   0.03164   0.03845
 Alpha virt. eigenvalues --    0.06840   0.06840   0.08653   0.08653   0.08755
 Alpha virt. eigenvalues --    0.09472   0.09472   0.13178   0.14508   0.23023

 Mulliken charges and spin densities:
               1          2
     1  Mn   1.035471   4.833329
     2  O   -1.035471   0.166671
 Sum of Mulliken charges =  -0.00000   5.00000

 Dipole moment (field-independent basis, Debye):
    X=              0.0000    Y=              0.0000    Z=              6.2651  Tot=              6.2651
 Quadrupole moment (field-independent basis, Debye-Ang):
   XX=            -19.2750   YY=            -19.2750   ZZ=            -22.7451
   XY=              0.0000   XZ=              0.0000   YZ=              0.0000

 \\#P ROCCSD(T)=(maxcyc=150, Full, SaveAmplitudes, ReadAmplitudes)/Gen
 .2556734\CCSD=-120.2388968\CCSD(T)=-120.28164\RMSD=8.043e-09\PG=C*V [C
 Normal termination of Gaussian 16 at Wed Mar 14 02:30:17 2018.
