 Gaussian 16, Revision A.03,
 Gaussian 16:  ES64L-G16RevA.03 25-Dec-2016

 ----------------------------------------------------------------------
 #P ROCCSD(T)=(maxcyc=150, Full)/Gen 5d 7f SCF=(maxcycles=300) Integral
 (NoXCTest) MaxDisk=500GB Pop=Regular Pseudo=Read IOp(5/15=2) Guess=Rea
 d
 ----------------------------------------------------------------------

 ---
 ScH
 ---
 Symbolic Z-matrix:
 Charge =  0 Multiplicity = 1

                         Standard orientation:
 ---------------------------------------------------------------------
 Center     Atomic      Atomic             Coordinates (Angstroms)
 Number     Number       Type             X           Y           Z
 ---------------------------------------------------------------------
      1         21           0        0.000000    0.000000    0.068182
      2          1           0        0.000000    0.000000   -1.431818
 ---------------------------------------------------------------------

 SCF Done:  E(ROHF) =  -46.7783982495     A.U. after   11 cycles
 E2 =    -0.4118702684D+00 EUMP2 =    -0.47190268517885D+02
 CCSD(T)
 CCSD(T)= -0.47232352616D+02

 The electronic state is 1-SG.
 Alpha  occ. eigenvalues --   -2.69622  -1.64197  -1.63210  -1.63210  -0.44144
 Alpha  occ. eigenvalues --   -0.22358
 Alpha virt. eigenvalues --    0.01312   0.01312   0.01669   0.02157   0.03514
 Alpha virt. eigenvalues --    0.03904   0.03904   0.03919   0.03919   0.04785
 Alpha virt. eigenvalues --    0.04785   0.05061   0.09329   0.09607   0.09607

 Mulliken charges and spin densities:
               1          2
     1  Sc   0.420288   0.000000
     2  H   -0.420288   0.000000
 Sum of Mulliken charges =  -0.00000   0.00000

 Dipole moment (field-independent basis, Debye):
    X=              0.0000    Y=              0.0000    Z=              0.7778  Tot=              0.7778
 Quadrupole moment (field-independent basis, Debye-Ang):
   XX=            -23.1830   YY=            -23.1830   ZZ=            -24.4430
   XY=              0.0000   XZ=              0.0000   YZ=              0.0000

 P ROCCSD(T)=(maxcyc=150, Full)/Gen 5d 7f SCF=(maxcycles=300) Integral(
 PMP2-0=-47.1902685\MP4SDQ=-47.215076\CCSD=-47.2145453\CCSD(T)=-47.2323
 Normal termination of Gaussian 16 at Wed Feb 14 00:05:41 2018.
