 Gaussian 16, Revision A.03,
 Gaussian 16:  ES64L-G16RevA.03 25-Dec-2016

 ----------------------------------------------------------------------
 #P ROCCSD(T)=(MaxCyc=150, Full)/Gen SCF=(maxcycle=400) Pseudo=Read Int
 egral(NoXCTest) Pop=Regular MaxDisk=500GB
 ----------------------------------------------------------------------

 ---
 FeO
 ---
 Symbolic Z-matrix:
 Charge =  0 Multiplicity = 5

                         Standard orientation:
 ---------------------------------------------------------------------
 Center     Atomic      Atomic             Coordinates (Angstroms)
 Number     Number       Type             X           Y           Z
 ---------------------------------------------------------------------
      1         26           0        0.000000    0.000000    0.400000
      2          8           0        0.000000    0.000000   -1.300000
 ---------------------------------------------------------------------

 SCF Done:  E(ROHF) =  -138.809156049     A.U. after   36 cycles
 E2 =    -0.9966755414D+00 EUMP2 =    -0.13980583159037D+03
 CCSD(T)
 CCSD(T)= -0.13983554020D+03

 Unable to determine electronic state:  partially filled degenerate orbitals.
 Alpha  occ. eigenvalues --   -4.39210  -3.02077  -2.94682  -2.94682  -1.10614
 Alpha  occ. eigenvalues --   -0.69553  -0.69553  -0.67239  -0.66121  -0.61066
 Alpha  occ. eigenvalues --   -0.35337  -0.34134  -0.34134
 Alpha virt. eigenvalues --   -0.05634   0.01670   0.01670   0.01727   0.04028
 Alpha virt. eigenvalues --    0.06966   0.06966   0.08730   0.09486   0.09518
 Alpha virt. eigenvalues --    0.10619   0.10619   0.13707   0.14813   0.24295

 Mulliken charges and spin densities:
               1          2
     1  Fe   1.149862   3.891683
     2  O   -1.149862   0.108317
 Sum of Mulliken charges =  -0.00000   4.00000

 Dipole moment (field-independent basis, Debye):
    X=              0.0000    Y=              0.0000    Z=              9.3072  Tot=              9.3072
 Quadrupole moment (field-independent basis, Debye-Ang):
   XX=            -18.4854   YY=            -18.4854   ZZ=            -23.0414
   XY=              0.0000   XZ=              0.0000   YZ=              0.0000

 \\#P ROCCSD(T)=(MaxCyc=150, Full)/Gen SCF=(maxcycle=400) Pseudo=Read I
 859\CCSD=-139.7877791\CCSD(T)=-139.8355402\RMSD=7.894e-09\PG=C*V [C*(O
 Normal termination of Gaussian 16 at Sat Mar 24 01:06:09 2018.
