 Gaussian 16, Revision A.03,
 Gaussian 16:  ES64L-G16RevA.03 25-Dec-2016

 ----------------------------------------------------------------------
 #P ROCCSD(T)=(MaxCyc=150, Full)/Gen SCF=(maxcycle=400) Pseudo=Read Int
 egral(NoXCTest) Pop=Regular MaxDisk=500GB
 ----------------------------------------------------------------------

 ---
 FeO
 ---
 Symbolic Z-matrix:
 Charge =  0 Multiplicity = 5

                         Standard orientation:
 ---------------------------------------------------------------------
 Center     Atomic      Atomic             Coordinates (Angstroms)
 Number     Number       Type             X           Y           Z
 ---------------------------------------------------------------------
      1         26           0        0.000000    0.000000    0.400000
      2          8           0        0.000000    0.000000   -1.300000
 ---------------------------------------------------------------------

 SCF Done:  E(ROHF) =  -138.811671438     A.U. after   32 cycles
 E2 =    -0.1043686095D+01 EUMP2 =    -0.13985535753283D+03
 CCSD(T)
 CCSD(T)= -0.13988249833D+03

 Unable to determine electronic state:  partially filled degenerate orbitals.
 Alpha  occ. eigenvalues --   -4.39157  -3.02051  -2.94658  -2.94658  -1.10572
 Alpha  occ. eigenvalues --   -0.69556  -0.69556  -0.67240  -0.66124  -0.61067
 Alpha  occ. eigenvalues --   -0.35325  -0.34136  -0.34136
 Alpha virt. eigenvalues --   -0.05628   0.01392   0.01392   0.01470   0.03565
 Alpha virt. eigenvalues --    0.06065   0.06065   0.06400   0.06411   0.06670
 Alpha virt. eigenvalues --    0.07735   0.07735   0.11612   0.13435   0.19038

 Mulliken charges and spin densities:
               1          2
     1  Fe   1.145192   3.901191
     2  O   -1.145192   0.098809
 Sum of Mulliken charges =  -0.00000   4.00000

 Dipole moment (field-independent basis, Debye):
    X=              0.0000    Y=              0.0000    Z=              9.2981  Tot=              9.2981
 Quadrupole moment (field-independent basis, Debye-Ang):
   XX=            -18.4842   YY=            -18.4842   ZZ=            -23.0184
   XY=              0.0000   XZ=              0.0000   YZ=              0.0000

 \\#P ROCCSD(T)=(MaxCyc=150, Full)/Gen SCF=(maxcycle=400) Pseudo=Read I
 36\CCSD=-139.8324387\CCSD(T)=-139.8824983\RMSD=6.596e-09\PG=C*V [C*(O1
 Normal termination of Gaussian 16 at Sat Mar 24 03:19:15 2018.
