 Gaussian 16, Revision A.03,
 Gaussian 16:  ES64L-G16RevA.03 25-Dec-2016

 ----------------------------------------------------------------------
 #P ROCCSD(T)=(maxcyc=150, Full, SaveAmplitudes, ReadAmplitudes)/Gen 5d
  7f SCF=(maxcycles=300) Integral(NoXCTest) MaxDisk=500GB Pop=Regular P
 seudo=Read Guess=Read IOp(5/15=2)
 ----------------------------------------------------------------------

 ---
 CrO
 ---
 Symbolic Z-matrix:
 Charge =  0 Multiplicity = 5

                         Standard orientation:
 ---------------------------------------------------------------------
 Center     Atomic      Atomic             Coordinates (Angstroms)
 Number     Number       Type             X           Y           Z
 ---------------------------------------------------------------------
      1         24           0        0.000000    0.000000    0.400000
      2          8           0        0.000000    0.000000   -1.200000
 ---------------------------------------------------------------------

 SCF Done:  E(ROHF) =  -101.844247840     A.U. after   27 cycles
 E2 =    -0.8777604269D+00 EUMP2 =    -0.10272200826724D+03
 CCSD(T)
 CCSD(T)= -0.10274892330D+03

 Unable to determine electronic state:  an orbital has unidentified symmetry.
 Alpha  occ. eigenvalues --   -3.79361  -2.53545  -2.49612  -2.46329  -1.16978
 Alpha  occ. eigenvalues --   -0.61877  -0.58391  -0.57149  -0.48033  -0.43180
 Alpha  occ. eigenvalues --   -0.38668  -0.31715
 Alpha virt. eigenvalues --   -0.00194   0.00575   0.01680   0.03181   0.03895
 Alpha virt. eigenvalues --    0.04504   0.06077   0.07569   0.07583   0.08063
 Alpha virt. eigenvalues --    0.08076   0.08463   0.13168   0.13492   0.15883

 Mulliken charges and spin densities:
               1          2
     1  Cr   1.096972   3.863546
     2  O   -1.096972   0.136454
 Sum of Mulliken charges =  -0.00000   4.00000

 Dipole moment (field-independent basis, Debye):
    X=              0.0000    Y=              0.0000    Z=              6.1385  Tot=              6.1385
 Quadrupole moment (field-independent basis, Debye-Ang):
   XX=            -20.6985   YY=            -19.6121   ZZ=            -24.0536
   XY=              0.0000   XZ=              0.0000   YZ=              0.0000

 \\#P ROCCSD(T)=(maxcyc=150, Full, SaveAmplitudes, ReadAmplitudes)/Gen
 SD=-102.6987266\CCSD(T)=-102.7489233\RMSD=6.942e-09\PG=C*V [C*(O1Cr1)]
 Normal termination of Gaussian 16 at Mon Mar 12 14:32:51 2018.
