 Gaussian 16, Revision A.03,
 Gaussian 16:  ES64L-G16RevA.03 25-Dec-2016

 ----------------------------------------------------------------------
 #P ROCCSD(T)=(maxcyc=150, Full)/Gen 5d 7f SCF=(maxcycles=300) Integral
 (NoXCTest, DKHSO) MaxDisk=500GB Pop=Regular IOp(5/15=2) Guess=Read
 ----------------------------------------------------------------------

 ---
 MnH
 ---
 Symbolic Z-matrix:
 Charge =  0 Multiplicity = 7

                         Standard orientation:
 ---------------------------------------------------------------------
 Center     Atomic      Atomic             Coordinates (Angstroms)
 Number     Number       Type             X           Y           Z
 ---------------------------------------------------------------------
      1         25           0        0.000000    0.000000    0.057692
      2          1           0        0.000000    0.000000   -1.442308
 ---------------------------------------------------------------------

 SCF Done:  E(ROHF) =  -1157.92943025     A.U. after   19 cycles
 E2 =    -0.1009064261D+01 EUMP2 =    -0.11589384945100D+04
 CCSD(T)
 CCSD(T)= -0.11589461527D+04

 The electronic state is 7-SG.
 Alpha  occ. eigenvalues -- -242.49259 -29.59750 -24.95190 -24.95190 -24.95084
 Alpha  occ. eigenvalues --   -4.08704  -2.73950  -2.73912  -2.73912  -0.64433
 Alpha  occ. eigenvalues --   -0.63578  -0.63578  -0.62963  -0.62963  -0.41744
 Alpha  occ. eigenvalues --   -0.25297
 Alpha virt. eigenvalues --    0.01281   0.01281   0.02067   0.03018   0.05139
 Alpha virt. eigenvalues --    0.05139   0.05680   0.05824   0.05824   0.06191
 Alpha virt. eigenvalues --    0.06191   0.08694   0.13833   0.14487   0.18023

 Mulliken charges and spin densities:
               1          2
     1  Mn   0.366769   5.940386
     2  H   -0.366769   0.059614
 Sum of Mulliken charges =  -0.00000   6.00000

 Dipole moment (field-independent basis, Debye):
    X=             -0.0000    Y=              0.0000    Z=              0.6071  Tot=              0.6071
 Quadrupole moment (field-independent basis, Debye-Ang):
   XX=            -16.3207   YY=            -16.3207   ZZ=            -25.9626
   XY=              0.0000   XZ=             -0.0000   YZ=              0.0000

 \\#P ROCCSD(T)=(maxcyc=150, Full)/Gen 5d 7f SCF=(maxcycles=300) Integr
 Normal termination of Gaussian 16 at Thu Feb 15 00:21:47 2018.
