 Gaussian 16, Revision A.03,
 Gaussian 16:  ES64L-G16RevA.03 25-Dec-2016

 ----------------------------------------------------------------------
 #P ROCCSD(T)=(maxcyc=150, Full, SaveAmplitudes, ReadAmplitudes)/Gen 5d
  7f SCF=(maxcycles=300) Integral(NoXCTest) MaxDisk=500GB Pop=Regular P
 seudo=Read Guess=Read IOp(5/15=2)
 ----------------------------------------------------------------------

 ---
 CrH
 ---
 Symbolic Z-matrix:
 Charge =  0 Multiplicity = 6

                         Standard orientation:
 ---------------------------------------------------------------------
 Center     Atomic      Atomic             Coordinates (Angstroms)
 Number     Number       Type             X           Y           Z
 ---------------------------------------------------------------------
      1         24           0        0.000000    0.000000    0.080000
      2          1           0        0.000000    0.000000   -1.920000
 ---------------------------------------------------------------------

 SCF Done:  E(ROHF) =  -86.8720211084     A.U. after   26 cycles
 E2 =    -0.5245226991D+00 EUMP2 =    -0.87396543807515D+02
 CCSD(T)
 CCSD(T)= -0.87449264944D+02

 The electronic state is 6-SG.
 Alpha  occ. eigenvalues --   -3.77931  -2.47849  -2.47849  -2.42820  -0.58216
 Alpha  occ. eigenvalues --   -0.58216  -0.54660  -0.54660  -0.37875  -0.26845
 Alpha virt. eigenvalues --    0.01051   0.01051   0.02200   0.02659   0.05272
 Alpha virt. eigenvalues --    0.05272   0.05441   0.07491   0.07491   0.07981
 Alpha virt. eigenvalues --    0.07981   0.09100   0.10468   0.16761   0.20512

 Mulliken charges and spin densities:
               1          2
     1  Cr   0.368139   4.975426
     2  H   -0.368139   0.024574
 Sum of Mulliken charges =   0.00000   5.00000

 Dipole moment (field-independent basis, Debye):
    X=              0.0000    Y=              0.0000    Z=              2.9814  Tot=              2.9814
 Quadrupole moment (field-independent basis, Debye-Ang):
   XX=            -17.1538   YY=            -17.1538   ZZ=            -26.8453
   XY=              0.0000   XZ=              0.0000   YZ=              0.0000

 \\#P ROCCSD(T)=(maxcyc=150, Full, SaveAmplitudes, ReadAmplitudes)/Gen
 9\CCSD=-87.4338922\CCSD(T)=-87.4492649\RMSD=8.800e-09\PG=C*V [C*(H1Cr1
 Normal termination of Gaussian 16 at Mon Feb 26 18:08:02 2018.
