 Gaussian 16, Revision A.03,
 Gaussian 16:  ES64L-G16RevA.03 25-Dec-2016

 ----------------------------------------------------------------------
 #P ROCCSD(T)=(MaxCyc=150, Full)/Gen SCF=(maxcycle=400, vshift=200) Pse
 udo=Read Integral(NoXCTest) Pop=Regular MaxDisk=500GB
 ----------------------------------------------------------------------

 ---
 FeO
 ---
 Symbolic Z-matrix:
 Charge =  0 Multiplicity = 5

                         Standard orientation:
 ---------------------------------------------------------------------
 Center     Atomic      Atomic             Coordinates (Angstroms)
 Number     Number       Type             X           Y           Z
 ---------------------------------------------------------------------
      1         26           0        0.000000    0.000000    0.423529
      2          8           0        0.000000    0.000000   -1.376471
 ---------------------------------------------------------------------

 SCF Done:  E(ROHF) =  -138.311731332     A.U. after   31 cycles
 E2 =    -0.1025542403D+01 EUMP2 =    -0.13933727373475D+03
 CCSD(T)
 CCSD(T)= -0.13936138216D+03

 Unable to determine electronic state:  partially filled degenerate orbitals.
 Alpha  occ. eigenvalues --   -4.47387  -3.05004  -2.97806  -2.97806  -1.11244
 Alpha  occ. eigenvalues --   -0.71070  -0.71070  -0.69440  -0.67917  -0.63005
 Alpha  occ. eigenvalues --   -0.34473  -0.34473  -0.34286
 Alpha virt. eigenvalues --   -0.05819   0.01281   0.01281   0.01406   0.03544
 Alpha virt. eigenvalues --    0.05914   0.05914   0.06357   0.06368   0.06679
 Alpha virt. eigenvalues --    0.07552   0.07552   0.11378   0.13393   0.19047

 Mulliken charges and spin densities:
               1          2
     1  Fe   1.097541   3.931370
     2  O   -1.097541   0.068630
 Sum of Mulliken charges =  -0.00000   4.00000

 Dipole moment (field-independent basis, Debye):
    X=              0.0000    Y=              0.0000    Z=              9.3827  Tot=              9.3827
 Quadrupole moment (field-independent basis, Debye-Ang):
   XX=            -18.8297   YY=            -18.8297   ZZ=            -23.9078
   XY=              0.0000   XZ=              0.0000   YZ=              0.0000

 \\#P ROCCSD(T)=(MaxCyc=150, Full)/Gen SCF=(maxcycle=400, vshift=200) P
 4SDQ=-139.3233728\CCSD=-139.3114891\CCSD(T)=-139.3613822\RMSD=8.672e-0
 Normal termination of Gaussian 16 at Wed Apr 18 07:52:23 2018.
