 Gaussian 16, Revision A.03,
 Gaussian 16:  ES64L-G16RevA.03 25-Dec-2016

 ----------------------------------------------------------------------
 #P ROCCSD(T)=(MaxCyc=150, Full)/Gen SCF=(maxcycle=400, vshift=200) Pse
 udo=Read Integral(NoXCTest) Pop=Regular MaxDisk=500GB
 ----------------------------------------------------------------------

 ---
 FeO
 ---
 Symbolic Z-matrix:
 Charge =  0 Multiplicity = 5

                         Standard orientation:
 ---------------------------------------------------------------------
 Center     Atomic      Atomic             Coordinates (Angstroms)
 Number     Number       Type             X           Y           Z
 ---------------------------------------------------------------------
      1         26           0        0.000000    0.000000    0.423529
      2          8           0        0.000000    0.000000   -1.376471
 ---------------------------------------------------------------------

 SCF Done:  E(ROHF) =  -138.309035547     A.U. after   34 cycles
 E2 =    -0.9787594917D+00 EUMP2 =    -0.13928779503864D+03
 CCSD(T)
 CCSD(T)= -0.13931436484D+03

 Unable to determine electronic state:  partially filled degenerate orbitals.
 Alpha  occ. eigenvalues --   -4.47402  -3.05027  -2.97826  -2.97826  -1.11284
 Alpha  occ. eigenvalues --   -0.71077  -0.71077  -0.69451  -0.67925  -0.63012
 Alpha  occ. eigenvalues --   -0.34465  -0.34465  -0.34303
 Alpha virt. eigenvalues --   -0.05828   0.01539   0.01539   0.01652   0.04005
 Alpha virt. eigenvalues --    0.06751   0.06751   0.08753   0.09402   0.09432
 Alpha virt. eigenvalues --    0.10473   0.10473   0.13488   0.14762   0.24109

 Mulliken charges and spin densities:
               1          2
     1  Fe   1.103632   3.921506
     2  O   -1.103632   0.078494
 Sum of Mulliken charges =  -0.00000   4.00000

 Dipole moment (field-independent basis, Debye):
    X=              0.0000    Y=              0.0000    Z=              9.3942  Tot=              9.3942
 Quadrupole moment (field-independent basis, Debye-Ang):
   XX=            -18.8318   YY=            -18.8318   ZZ=            -23.9305
   XY=              0.0000   XZ=              0.0000   YZ=              0.0000

 \\#P ROCCSD(T)=(MaxCyc=150, Full)/Gen SCF=(maxcycle=400, vshift=200) P
 DQ=-139.2795288\CCSD=-139.2667779\CCSD(T)=-139.3143648\RMSD=7.639e-09\
 Normal termination of Gaussian 16 at Wed Apr 18 05:39:13 2018.
