 Gaussian 16, Revision A.03,
 Gaussian 16:  ES64L-G16RevA.03 25-Dec-2016

 ----------------------------------------------------------------------
 #P ROCCSD(T)=(maxcyc=150, Full, SaveAmplitudes, ReadAmplitudes)/Gen 5d
  7f SCF=(maxcycles=300, VShift=400) Integral(NoXCTest) MaxDisk=500GB P
 op=Regular Pseudo=Read Guess=Read IOp(5/15=2)
 ----------------------------------------------------------------------

 ---
 CrO
 ---
 Symbolic Z-matrix:
 Charge =  0 Multiplicity = 5

                         Standard orientation:
 ---------------------------------------------------------------------
 Center     Atomic      Atomic             Coordinates (Angstroms)
 Number     Number       Type             X           Y           Z
 ---------------------------------------------------------------------
      1         24           0        0.000000    0.000000    0.450000
      2          8           0        0.000000    0.000000   -1.350000
 ---------------------------------------------------------------------

 SCF Done:  E(ROHF) =  -101.992872733     A.U. after  100 cycles
 E2 =    -0.8534870226D+00 EUMP2 =    -0.10284635975608D+03
 CCSD(T)
 CCSD(T)= -0.10289988886D+03

 Unable to determine electronic state:  an orbital has unidentified symmetry.
 Alpha  occ. eigenvalues --   -3.76829  -2.48588  -2.43621  -2.42791  -1.09860
 Alpha  occ. eigenvalues --   -0.57628  -0.56183  -0.55472  -0.52249  -0.34314
 Alpha  occ. eigenvalues --   -0.32983  -0.32717
 Alpha virt. eigenvalues --   -0.04585   0.00740   0.01374   0.01779   0.03721
 Alpha virt. eigenvalues --    0.05016   0.06208   0.07414   0.07421   0.07630
 Alpha virt. eigenvalues --    0.08359   0.08727   0.12921   0.13957   0.15513

 Mulliken charges and spin densities:
               1          2
     1  Cr   1.169654   3.942297
     2  O   -1.169654   0.057703
 Sum of Mulliken charges =  -0.00000   4.00000

 Dipole moment (field-independent basis, Debye):
    X=              0.0000    Y=              0.0000    Z=              9.7148  Tot=              9.7148
 Quadrupole moment (field-independent basis, Debye-Ang):
   XX=            -19.5512   YY=            -18.7336   ZZ=            -23.9796
   XY=              0.0000   XZ=              0.0000   YZ=              0.0000

 \\#P ROCCSD(T)=(maxcyc=150, Full, SaveAmplitudes, ReadAmplitudes)/Gen
 2.8580365\CCSD=-102.8479304\CCSD(T)=-102.8998889\RMSD=6.574e-09\PG=C*V
 Normal termination of Gaussian 16 at Sun Mar 18 17:00:57 2018.
