 Gaussian 16, Revision A.03,
 Gaussian 16:  ES64L-G16RevA.03 25-Dec-2016

 ----------------------------------------------------------------------
 #P ROCCSD(T)=(maxcyc=150, Full, SaveAmplitudes, ReadAmplitudes)/Gen 5d
  7f SCF=(maxcycles=300) Integral(NoXCTest) MaxDisk=500GB Pop=Regular P
 seudo=Read Guess=Read IOp(5/15=2)
 ----------------------------------------------------------------------

 ---
 TiO
 ---
 Symbolic Z-matrix:
 Charge =  0 Multiplicity = 3

                         Standard orientation:
 ---------------------------------------------------------------------
 Center     Atomic      Atomic             Coordinates (Angstroms)
 Number     Number       Type             X           Y           Z
 ---------------------------------------------------------------------
      1         22           0        0.000000    0.000000    0.480000
      2          8           0        0.000000    0.000000   -1.320000
 ---------------------------------------------------------------------

 SCF Done:  E(ROHF) =  -73.3718272095     A.U. after   22 cycles
 E2 =    -0.7505984591D+00 EUMP2 =    -0.74122425668622D+02
 CCSD(T)
 CCSD(T)= -0.74157658785D+02

 Unable to determine electronic state:  an orbital has unidentified symmetry.
 Alpha  occ. eigenvalues --   -3.07061  -1.95799  -1.95799  -1.91727  -1.14012
 Alpha  occ. eigenvalues --   -0.50711  -0.43322  -0.39542  -0.39542  -0.28717
 Alpha virt. eigenvalues --   -0.00476  -0.00476   0.00749   0.02234   0.03575
 Alpha virt. eigenvalues --    0.03575   0.04101   0.04678   0.05078   0.05922
 Alpha virt. eigenvalues --    0.05922   0.06156   0.08455   0.10821   0.11770

 Mulliken charges and spin densities:
               1          2
     1  Ti   0.945009   1.987790
     2  O   -0.945009   0.012210
 Sum of Mulliken charges =  -0.00000   2.00000

 Dipole moment (field-independent basis, Debye):
    X=              0.0000    Y=              0.0000    Z=              6.0816  Tot=              6.0816
 Quadrupole moment (field-independent basis, Debye-Ang):
   XX=            -21.6110   YY=            -21.6110   ZZ=            -30.2883
   XY=              0.0000   XZ=              0.0000   YZ=              0.0000

 \\#P ROCCSD(T)=(maxcyc=150, Full, SaveAmplitudes, ReadAmplitudes)/Gen
 .1051886\CCSD(T)=-74.1576588\RMSD=4.606e-09\PG=C*V [C*(O1Ti1)]\\@
 Normal termination of Gaussian 16 at Sat Mar 10 18:22:58 2018.
