 Gaussian 16, Revision A.03,
 Gaussian 16:  ES64L-G16RevA.03 25-Dec-2016

 ----------------------------------------------------------------------
 #P ROCCSD(T)=(maxcyc=150, Full, SaveAmplitudes, ReadAmplitudes)/Gen 5d
  7f SCF=(maxcycles=300) Integral(NoXCTest) MaxDisk=500GB Pop=Regular P
 seudo=Read Guess=Read
 ----------------------------------------------------------------------

 ---
 ScO
 ---
 Symbolic Z-matrix:
 Charge =  0 Multiplicity = 2

                         Standard orientation:
 ---------------------------------------------------------------------
 Center     Atomic      Atomic             Coordinates (Angstroms)
 Number     Number       Type             X           Y           Z
 ---------------------------------------------------------------------
      1         21           0        0.000000    0.000000    0.303448
      2          8           0        0.000000    0.000000   -0.796552
 ---------------------------------------------------------------------

 SCF Done:  E(ROHF) =  -61.4932559903     A.U. after   16 cycles
 E2 =    -0.6760029248D+00 EUMP2 =    -0.62169258915179D+02
 CCSD(T)
 CCSD(T)= -0.62199500411D+02

 The electronic state is 2-SG.
 Alpha  occ. eigenvalues --   -2.73816  -1.86372  -1.52627  -1.52627  -1.04082
 Alpha  occ. eigenvalues --   -0.69166  -0.69166  -0.46850  -0.16575
 Alpha virt. eigenvalues --    0.00914   0.00914   0.01367   0.02692   0.02831
 Alpha virt. eigenvalues --    0.02831   0.02844   0.02844   0.02958   0.04372
 Alpha virt. eigenvalues --    0.04372   0.06123   0.08148   0.08148   0.08392

 Mulliken charges and spin densities:
               1          2
     1  Sc   0.701369   1.041137
     2  O   -0.701369  -0.041137
 Sum of Mulliken charges =  -0.00000   1.00000

 Dipole moment (field-independent basis, Debye):
    X=              0.0000    Y=              0.0000    Z=             -2.4473  Tot=              2.4473
 Quadrupole moment (field-independent basis, Debye-Ang):
   XX=            -24.3692   YY=            -24.3692   ZZ=            -28.5182
   XY=              0.0000   XZ=              0.0000   YZ=              0.0000

 \\#P ROCCSD(T)=(maxcyc=150, Full, SaveAmplitudes, ReadAmplitudes)/Gen
 3256\PMP2-0=-62.1692589\CCSD=-62.1729625\CCSD(T)=-62.1995004\RMSD=2.52
 Normal termination of Gaussian 16 at Tue Feb 20 20:58:10 2018.
