 Gaussian 16, Revision A.03,
 Gaussian 16:  ES64L-G16RevA.03 25-Dec-2016

 ----------------------------------------------------------------------
 #P ROCCSD(T)=(maxcyc=150, Full, SaveAmplitudes, ReadAmplitudes)/Gen 5d
  7f SCF=(maxcycles=300) Integral(NoXCTest) MaxDisk=500GB Pop=Regular P
 seudo=Read Guess=Read IOp(5/15=2)
 ----------------------------------------------------------------------

 ---
 TiO
 ---
 Symbolic Z-matrix:
 Charge =  0 Multiplicity = 3

                         Standard orientation:
 ---------------------------------------------------------------------
 Center     Atomic      Atomic             Coordinates (Angstroms)
 Number     Number       Type             X           Y           Z
 ---------------------------------------------------------------------
      1         22           0        0.000000    0.000000    0.400000
      2          8           0        0.000000    0.000000   -1.100000
 ---------------------------------------------------------------------

 SCF Done:  E(ROHF) =  -73.4062781515     A.U. after   22 cycles
 E2 =    -0.7411614092D+00 EUMP2 =    -0.74147439560674D+02
 CCSD(T)
 CCSD(T)= -0.74174600488D+02

 Unable to determine electronic state:  an orbital has unidentified symmetry.
 Alpha  occ. eigenvalues --   -2.98842  -1.90208  -1.88071  -1.88071  -1.17079
 Alpha  occ. eigenvalues --   -0.48961  -0.48961  -0.48538  -0.42426  -0.24844
 Alpha virt. eigenvalues --    0.00729   0.00729   0.01912   0.02583   0.04392
 Alpha virt. eigenvalues --    0.04392   0.04947   0.05041   0.05232   0.05842
 Alpha virt. eigenvalues --    0.05842   0.07451   0.11377   0.11902   0.14104

 Mulliken charges and spin densities:
               1          2
     1  Ti   0.855431   2.009898
     2  O   -0.855431  -0.009898
 Sum of Mulliken charges =  -0.00000   2.00000

 Dipole moment (field-independent basis, Debye):
    X=              0.0000    Y=              0.0000    Z=              3.0844  Tot=              3.0844
 Quadrupole moment (field-independent basis, Debye-Ang):
   XX=            -21.5335   YY=            -21.5335   ZZ=            -28.4318
   XY=              0.0000   XZ=              0.0000   YZ=              0.0000

 \\#P ROCCSD(T)=(maxcyc=150, Full, SaveAmplitudes, ReadAmplitudes)/Gen
 .1336282\CCSD(T)=-74.1746005\RMSD=3.627e-09\PG=C*V [C*(O1Ti1)]\\@
 Normal termination of Gaussian 16 at Sat Mar 10 00:27:41 2018.
