 Gaussian 16, Revision A.03,
 Gaussian 16:  ES64L-G16RevA.03 25-Dec-2016

 ----------------------------------------------------------------------
 #P ROCCSD(T)=(maxcyc=150, Full, SaveAmplitudes, ReadAmplitudes)/Gen 5d
  7f SCF=(maxcycles=300) Integral(NoXCTest) MaxDisk=500GB Pop=Regular P
 seudo=Read Guess=Read IOp(5/15=2)
 ----------------------------------------------------------------------

 ---
 MnO
 ---
 Symbolic Z-matrix:
 Charge =  0 Multiplicity = 6

                         Standard orientation:
 ---------------------------------------------------------------------
 Center     Atomic      Atomic             Coordinates (Angstroms)
 Number     Number       Type             X           Y           Z
 ---------------------------------------------------------------------
      1         25           0        0.000000    0.000000    0.436364
      2          8           0        0.000000    0.000000   -1.363636
 ---------------------------------------------------------------------

 SCF Done:  E(ROHF) =  -119.353923038     A.U. after   34 cycles
 E2 =    -0.9032906830D+00 EUMP2 =    -0.12025721372102D+03
 CCSD(T)
 CCSD(T)= -0.12028719954D+03

 The electronic state is 6-SG.
 Alpha  occ. eigenvalues --   -4.10257  -2.76603  -2.76603  -2.76170  -1.10480
 Alpha  occ. eigenvalues --   -0.64978  -0.64978  -0.64732  -0.64732  -0.61689
 Alpha  occ. eigenvalues --   -0.33569  -0.33569  -0.33326
 Alpha virt. eigenvalues --   -0.05421   0.01374   0.01374   0.01592   0.03828
 Alpha virt. eigenvalues --    0.06396   0.06396   0.08178   0.08352   0.08352
 Alpha virt. eigenvalues --    0.09455   0.09455   0.12780   0.14035   0.22485

 Mulliken charges and spin densities:
               1          2
     1  Mn   1.131955   4.932803
     2  O   -1.131955   0.067197
 Sum of Mulliken charges =  -0.00000   5.00000

 Dipole moment (field-independent basis, Debye):
    X=              0.0000    Y=              0.0000    Z=              9.5440  Tot=              9.5440
 Quadrupole moment (field-independent basis, Debye-Ang):
   XX=            -18.9666   YY=            -18.9666   ZZ=            -24.4891
   XY=              0.0000   XZ=              0.0000   YZ=              0.0000

 \\#P ROCCSD(T)=(maxcyc=150, Full, SaveAmplitudes, ReadAmplitudes)/Gen
 563458\CCSD=-120.2461606\CCSD(T)=-120.2871995\RMSD=3.865e-09\PG=C*V [C
 Normal termination of Gaussian 16 at Tue Mar 13 12:38:39 2018.
