 Gaussian 16, Revision A.03,
 Gaussian 16:  ES64L-G16RevA.03 25-Dec-2016

 ----------------------------------------------------------------------
 #P ROCCSD(T)=(maxcyc=150, Full, SaveAmplitudes, ReadAmplitudes)/Gen 5d
  7f SCF=(maxcycles=300) Integral(NoXCTest) MaxDisk=500GB Pop=Regular P
 seudo=Read Guess=Read IOp(5/15=2)
 ----------------------------------------------------------------------

 ---
 TiO
 ---
 Symbolic Z-matrix:
 Charge =  0 Multiplicity = 3

                         Standard orientation:
 ---------------------------------------------------------------------
 Center     Atomic      Atomic             Coordinates (Angstroms)
 Number     Number       Type             X           Y           Z
 ---------------------------------------------------------------------
      1         22           0        0.000000    0.000000    0.320000
      2          8           0        0.000000    0.000000   -0.880000
 ---------------------------------------------------------------------

 SCF Done:  E(ROHF) =  -73.2762679920     A.U. after   24 cycles
 E2 =    -0.7291248049D+00 EUMP2 =    -0.74005392796878D+02
 CCSD(T)
 CCSD(T)= -0.74030629667D+02

 Unable to determine electronic state:  an orbital has unidentified symmetry.
 Alpha  occ. eigenvalues --   -2.97726  -2.00949  -1.80206  -1.80206  -1.11337
 Alpha  occ. eigenvalues --   -0.65369  -0.65369  -0.54354  -0.32906  -0.20115
 Alpha virt. eigenvalues --    0.01293   0.01293   0.02109   0.02787   0.04936
 Alpha virt. eigenvalues --    0.04936   0.05035   0.05207   0.05367   0.05762
 Alpha virt. eigenvalues --    0.05762   0.08534   0.12292   0.14372   0.14873

 Mulliken charges and spin densities:
               1          2
     1  Ti   0.563678   2.061095
     2  O   -0.563678  -0.061095
 Sum of Mulliken charges =  -0.00000   2.00000

 Dipole moment (field-independent basis, Debye):
    X=              0.0000    Y=              0.0000    Z=             -0.6326  Tot=              0.6326
 Quadrupole moment (field-independent basis, Debye-Ang):
   XX=            -22.4045   YY=            -22.4045   ZZ=            -26.2709
   XY=              0.0000   XZ=              0.0000   YZ=              0.0000

 \\#P ROCCSD(T)=(maxcyc=150, Full, SaveAmplitudes, ReadAmplitudes)/Gen
 986561\CCSD(T)=-74.0306297\RMSD=2.999e-09\PG=C*V [C*(O1Ti1)]\\@
 Normal termination of Gaussian 16 at Mon Mar 12 14:21:38 2018.
