 Gaussian 16, Revision A.03,
 Gaussian 16:  ES64L-G16RevA.03 25-Dec-2016

 ----------------------------------------------------------------------
 #P ROCCSD(T)=(maxcyc=150, Full, SaveAmplitudes, ReadAmplitudes)/Gen 5d
  7f SCF=(maxcycles=300) Integral(NoXCTest) MaxDisk=500GB Pop=Regular P
 seudo=Read Guess=Read IOp(5/15=2)
 ----------------------------------------------------------------------

 ---
 TiO
 ---
 Symbolic Z-matrix:
 Charge =  0 Multiplicity = 3

                         Standard orientation:
 ---------------------------------------------------------------------
 Center     Atomic      Atomic             Coordinates (Angstroms)
 Number     Number       Type             X           Y           Z
 ---------------------------------------------------------------------
      1         22           0        0.000000    0.000000    0.506667
      2          8           0        0.000000    0.000000   -1.393333
 ---------------------------------------------------------------------

 SCF Done:  E(ROHF) =  -73.2505896018     A.U. after   22 cycles
 E2 =    -0.7565170092D+00 EUMP2 =    -0.74007106611044D+02
 CCSD(T)
 CCSD(T)= -0.74044135436D+02

 Unable to determine electronic state:  an orbital has unidentified symmetry.
 Alpha  occ. eigenvalues --   -3.07219  -1.98090  -1.98090  -1.93509  -1.12361
 Alpha  occ. eigenvalues --   -0.52344  -0.41386  -0.37400  -0.37400  -0.29751
 Alpha virt. eigenvalues --   -0.00938  -0.00938   0.00022   0.01971   0.03329
 Alpha virt. eigenvalues --    0.03329   0.03718   0.04453   0.05030   0.05950
 Alpha virt. eigenvalues --    0.05950   0.06101   0.07469   0.10482   0.10482

 Mulliken charges and spin densities:
               1          2
     1  Ti   0.962321   1.985311
     2  O   -0.962321   0.014689
 Sum of Mulliken charges =  -0.00000   2.00000

 Dipole moment (field-independent basis, Debye):
    X=              0.0000    Y=              0.0000    Z=              7.0463  Tot=              7.0463
 Quadrupole moment (field-independent basis, Debye-Ang):
   XX=            -21.7686   YY=            -21.7686   ZZ=            -30.6453
   XY=              0.0000   XZ=              0.0000   YZ=              0.0000

 \\#P ROCCSD(T)=(maxcyc=150, Full, SaveAmplitudes, ReadAmplitudes)/Gen
 .9871485\CCSD(T)=-74.0441354\RMSD=3.449e-09\PG=C*V [C*(O1Ti1)]\\@
 Normal termination of Gaussian 16 at Sat Mar 10 02:10:16 2018.
