 Gaussian 16, Revision A.03,
 Gaussian 16:  ES64L-G16RevA.03 25-Dec-2016

 ----------------------------------------------------------------------
 #P ROCCSD(T)=(maxcyc=150, Full)/Gen 5d 7f SCF=(maxcycles=300) Integral
 (NoXCTest) MaxDisk=500GB Pop=Regular Pseudo=Read Guess=Read
 ----------------------------------------------------------------------

 ---
 ScH
 ---
 Symbolic Z-matrix:
 Charge =  0 Multiplicity = 1

                         Standard orientation:
 ---------------------------------------------------------------------
 Center     Atomic      Atomic             Coordinates (Angstroms)
 Number     Number       Type             X           Y           Z
 ---------------------------------------------------------------------
      1         21           0        0.000000    0.000000    0.068182
      2          1           0        0.000000    0.000000   -1.431818
 ---------------------------------------------------------------------

 SCF Done:  E(ROHF) =  -46.6433732328     A.U. after    8 cycles
 E2 =    -0.4353644832D+00 EUMP2 =    -0.47078737716067D+02
 CCSD(T)
 CCSD(T)= -0.47117458743D+02

 The electronic state is 1-SG.
 Alpha  occ. eigenvalues --   -2.65444  -1.64273  -1.63286  -1.63286  -0.44178
 Alpha  occ. eigenvalues --   -0.22246
 Alpha virt. eigenvalues --    0.01226   0.01226   0.01483   0.01666   0.02620
 Alpha virt. eigenvalues --    0.02620   0.02631   0.02631   0.02656   0.04101
 Alpha virt. eigenvalues --    0.04231   0.04231   0.06957   0.07292   0.07292

 Mulliken charges and spin densities:
               1          2
     1  Sc   0.365868   0.000000
     2  H   -0.365868   0.000000
 Sum of Mulliken charges =   0.00000   0.00000

 Dipole moment (field-independent basis, Debye):
    X=              0.0000    Y=              0.0000    Z=              0.7934  Tot=              0.7934
 Quadrupole moment (field-independent basis, Debye-Ang):
   XX=            -23.3422   YY=            -23.3422   ZZ=            -24.5498
   XY=              0.0000   XZ=              0.0000   YZ=              0.0000

 P ROCCSD(T)=(maxcyc=150, Full)/Gen 5d 7f SCF=(maxcycles=300) Integral(
 787377\MP4SDQ=-47.0985336\CCSD=-47.0981647\CCSD(T)=-47.1174587\RMSD=3.
 Normal termination of Gaussian 16 at Tue Feb 13 00:57:37 2018.
