 Gaussian 16, Revision A.03,
 Gaussian 16:  ES64L-G16RevA.03 25-Dec-2016

 ----------------------------------------------------------------------
 #P ROCCSD(T)=(MaxCyc=150, Full)/Gen SCF=(maxcycle=400) Integral(DKHSO,
  NoXCTest) Pop=Regular MaxDisk=500GB Guess=Read IOp(5/15=2)
 ----------------------------------------------------------------------

 ---
 ZnO
 ---
 Symbolic Z-matrix:
 Charge =  0 Multiplicity = 1

                         Standard orientation:
 ---------------------------------------------------------------------
 Center     Atomic      Atomic             Coordinates (Angstroms)
 Number     Number       Type             X           Y           Z
 ---------------------------------------------------------------------
      1         30           0        0.000000    0.000000    0.421053
      2          8           0        0.000000    0.000000   -1.578947
 ---------------------------------------------------------------------

 SCF Done:  E(ROHF) =  -1869.05942793     A.U. after   11 cycles
 E2 =    -0.1790520183D+01 EUMP2 =    -0.18708499481141D+04
 CCSD(T)
 CCSD(T)= -0.18707916624D+04

 The electronic state is 1-SG.
 Alpha  occ. eigenvalues -- -357.61636 -45.38177 -39.18511 -39.18511 -39.18349
 Alpha  occ. eigenvalues --  -20.56913  -5.85027  -3.92939  -3.92939  -3.92890
 Alpha  occ. eigenvalues --   -1.15940  -0.81676  -0.81676  -0.81581  -0.81581
 Alpha  occ. eigenvalues --   -0.80874  -0.44478  -0.44478  -0.34828
 Alpha virt. eigenvalues --   -0.03910   0.02464   0.02464   0.02844   0.04441
 Alpha virt. eigenvalues --    0.08399   0.08399   0.13080   0.17371   0.21172
 Alpha virt. eigenvalues --    0.22377   0.22377   0.24797   0.24797   0.30221

 Mulliken charges and spin densities:
               1          2
     1  Zn   0.684864   0.000000
     2  O   -0.684864   0.000000
 Sum of Mulliken charges =  -0.00000   0.00000

 Dipole moment (field-independent basis, Debye):
    X=              0.0000    Y=              0.0000    Z=              5.5939  Tot=              5.5939
 Quadrupole moment (field-independent basis, Debye-Ang):
   XX=            -19.0316   YY=            -19.0316   ZZ=            -22.2482
   XY=              0.0000   XZ=              0.0000   YZ=              0.0000

 P ROCCSD(T)=(MaxCyc=150, Full)/Gen SCF=(maxcycle=400) Integral(DKHSO,
 0=-1870.8499481\MP4SDQ=-1870.7806299\CCSD=-1870.7415249\CCSD(T)=-1870.
 Normal termination of Gaussian 16 at Fri May  4 17:49:56 2018.
