 Gaussian 16, Revision A.03,
 Gaussian 16:  ES64L-G16RevA.03 25-Dec-2016

 ----------------------------------------------------------------------
 #P ROCCSD(T)=(maxcyc=150, Full, SaveAmplitudes, ReadAmplitudes)/Gen 5d
  7f SCF=(maxcycles=300) Integral(NoXCTest) MaxDisk=500GB Pop=Regular P
 seudo=Read Guess=Read IOp(5/15=2)
 ----------------------------------------------------------------------

 ---
 TiO
 ---
 Symbolic Z-matrix:
 Charge =  0 Multiplicity = 3

                         Standard orientation:
 ---------------------------------------------------------------------
 Center     Atomic      Atomic             Coordinates (Angstroms)
 Number     Number       Type             X           Y           Z
 ---------------------------------------------------------------------
      1         22           0        0.000000    0.000000    0.480000
      2          8           0        0.000000    0.000000   -1.320000
 ---------------------------------------------------------------------

 SCF Done:  E(ROHF) =  -73.5132693582     A.U. after   22 cycles
 E2 =    -0.7622515854D+00 EUMP2 =    -0.74275520943527D+02
 CCSD(T)
 CCSD(T)= -0.74310555954D+02

 Unable to determine electronic state:  an orbital has unidentified symmetry.
 Alpha  occ. eigenvalues --   -3.09342  -1.94890  -1.94890  -1.90723  -1.12267
 Alpha  occ. eigenvalues --   -0.50167  -0.43326  -0.39475  -0.39475  -0.28800
 Alpha virt. eigenvalues --   -0.00528  -0.00528   0.00789   0.02200   0.03551
 Alpha virt. eigenvalues --    0.03551   0.04114   0.04677   0.05074   0.05920
 Alpha virt. eigenvalues --    0.05920   0.06161   0.08499   0.10796   0.11776

 Mulliken charges and spin densities:
               1          2
     1  Ti   0.967820   1.987605
     2  O   -0.967820   0.012395
 Sum of Mulliken charges =  -0.00000   2.00000

 Dipole moment (field-independent basis, Debye):
    X=              0.0000    Y=              0.0000    Z=              6.0534  Tot=              6.0534
 Quadrupole moment (field-independent basis, Debye-Ang):
   XX=            -21.5433   YY=            -21.5433   ZZ=            -30.4351
   XY=              0.0000   XZ=              0.0000   YZ=              0.0000

 \\#P ROCCSD(T)=(maxcyc=150, Full, SaveAmplitudes, ReadAmplitudes)/Gen
 2579665\CCSD(T)=-74.310556\RMSD=6.874e-09\PG=C*V [C*(O1Ti1)]\\@
 Normal termination of Gaussian 16 at Mon Mar 12 14:25:47 2018.
