 Gaussian 16, Revision A.03,
 Gaussian 16:  ES64L-G16RevA.03 25-Dec-2016

 ----------------------------------------------------------------------
 #P ROCCSD(T)=(maxcyc=150, Window=(6,0), SaveAmplitudes, ReadAmplitudes
 )/Gen 5d 7f SCF=(maxcycles=300) Integral(NoXCTest, DKHSO) MaxDisk=500G
 B Pop=Regular Guess=Read IOp(5/15=2)
 ----------------------------------------------------------------------

 ---
 CrH
 ---
 Symbolic Z-matrix:
 Charge =  0 Multiplicity = 6

                         Standard orientation:
 ---------------------------------------------------------------------
 Center     Atomic      Atomic             Coordinates (Angstroms)
 Number     Number       Type             X           Y           Z
 ---------------------------------------------------------------------
      1         24           0        0.000000    0.000000    0.052000
      2          1           0        0.000000    0.000000   -1.248000
 ---------------------------------------------------------------------

 SCF Done:  E(ROHF) =  -1050.14769594     A.U. after   31 cycles
 E2 =    -0.5569178620D+00 EUMP2 =    -0.10507046138005D+04
 CCSD(T)
 CCSD(T)= -0.10507279400D+04

 The electronic state is 6-SG.
 Alpha  occ. eigenvalues -- -222.13141 -26.72018 -22.35461 -22.35461 -22.35368
 Alpha  occ. eigenvalues --   -3.60225  -2.35535  -2.35535  -2.33584  -0.47403
 Alpha  occ. eigenvalues --   -0.47403  -0.44927  -0.44664  -0.44664  -0.25238
 Alpha virt. eigenvalues --    0.01679   0.01679   0.02019   0.02385   0.06105
 Alpha virt. eigenvalues --    0.06105   0.06142   0.07824   0.07824   0.08115
 Alpha virt. eigenvalues --    0.08115   0.08251   0.10032   0.19465   0.22021

 Mulliken charges and spin densities:
               1          2
     1  Cr   0.673145   5.014128
     2  H   -0.673145  -0.014128
 Sum of Mulliken charges =  -0.00000   5.00000

 Dipole moment (field-independent basis, Debye):
    X=              0.0000    Y=              0.0000    Z=              1.9197  Tot=              1.9197
 Quadrupole moment (field-independent basis, Debye-Ang):
   XX=            -17.0756   YY=            -17.0756   ZZ=            -20.1332
   XY=              0.0000   XZ=              0.0000   YZ=              0.0000

 1\1\GINC-C505-052\SP\ROCCSD(T)-RW\Gen\Cr1H1(6)\AANNABE\25-Feb-2018\0\\
 #P ROCCSD(T)=(maxcyc=150, Window=(6,0), SaveAmplitudes, ReadAmplitudes
 )/Gen 5d 7f SCF=(maxcycles=300) Integral(NoXCTest, DKHSO) MaxDisk=500G
 B Pop=Regular Guess=Read IOp(5/15=2)\\CrH\\0,6\Cr,0,0.,0.,0.\H,0,0.,0.
 ,1.3\\Version=ES64L-G16RevA.03\State=6-SG\HF=-1050.1476959\MP2=-1050.7
 046138\MP3=-1050.6925006\PUHF=-1050.1476959\PMP2-0=-1050.7046138\MP4SD
 Q=-1050.7057831\CCSD=-1050.7093689\CCSD(T)=-1050.72794\RMSD=5.849e-09\
 PG=C*V [C*(H1Cr1)]\\@

 Normal termination of Gaussian 16 at Sun Feb 25 20:17:05 2018.
