 Gaussian 16, Revision A.03,
 Gaussian 16:  ES64L-G16RevA.03 25-Dec-2016

 ----------------------------------------------------------------------
 #P ROCCSD(T)=(maxcyc=150, Full, SaveAmplitudes, ReadAmplitudes)/Gen 5d
  7f SCF=(maxcycles=300) Integral(NoXCTest) MaxDisk=500GB Pop=Regular P
 seudo=Read Guess=Read IOp(5/15=2)
 ----------------------------------------------------------------------

 ---
 MnO
 ---
 Symbolic Z-matrix:
 Charge =  0 Multiplicity = 6

                         Standard orientation:
 ---------------------------------------------------------------------
 Center     Atomic      Atomic             Coordinates (Angstroms)
 Number     Number       Type             X           Y           Z
 ---------------------------------------------------------------------
      1         25           0        0.000000    0.000000    0.315152
      2          8           0        0.000000    0.000000   -0.984848
 ---------------------------------------------------------------------

 SCF Done:  E(ROHF) =  -119.217312518     A.U. after   30 cycles
 E2 =    -0.9510830622D+00 EUMP2 =    -0.12016839558006D+03
 CCSD(T)
 CCSD(T)= -0.12017647139D+03

 The electronic state is 6-SG.
 Alpha  occ. eigenvalues --   -4.07775  -2.73507  -2.73507  -2.73135  -1.25934
 Alpha  occ. eigenvalues --   -0.73199  -0.73199  -0.61390  -0.61390  -0.60000
 Alpha  occ. eigenvalues --   -0.40825  -0.40825  -0.30297
 Alpha virt. eigenvalues --    0.01909   0.02420   0.02420   0.03160   0.06300
 Alpha virt. eigenvalues --    0.07563   0.07563   0.08760   0.08760   0.09365
 Alpha virt. eigenvalues --    0.09365   0.10223   0.12067   0.16206   0.24356

 Mulliken charges and spin densities:
               1          2
     1  Mn   0.808106   4.777715
     2  O   -0.808106   0.222285
 Sum of Mulliken charges =  -0.00000   5.00000

 Dipole moment (field-independent basis, Debye):
    X=              0.0000    Y=              0.0000    Z=              2.7338  Tot=              2.7338
 Quadrupole moment (field-independent basis, Debye-Ang):
   XX=            -19.7491   YY=            -19.7491   ZZ=            -22.8713
   XY=              0.0000   XZ=              0.0000   YZ=              0.0000

 \\#P ROCCSD(T)=(maxcyc=150, Full, SaveAmplitudes, ReadAmplitudes)/Gen
 .1500614\CCSD=-120.1360922\CCSD(T)=-120.1764714\RMSD=3.018e-09\PG=C*V
 Normal termination of Gaussian 16 at Tue Mar 13 03:13:20 2018.
