 Gaussian 16, Revision A.03,
 Gaussian 16:  ES64L-G16RevA.03 25-Dec-2016

 ----------------------------------------------------------------------
 #P ROCCSD(T)=(MaxCyc=150, Full)/Gen SCF=(maxcycle=400) Pseudo=Read Int
 egral(NoXCTest) Pop=Regular MaxDisk=500GB Guess=Read IOp(5/15=2)
 ----------------------------------------------------------------------

 --
 Cu
 --
 Symbolic Z-matrix:
 Charge =  0 Multiplicity = 2

                         Standard orientation:
 ---------------------------------------------------------------------
 Center     Atomic      Atomic             Coordinates (Angstroms)
 Number     Number       Type             X           Y           Z
 ---------------------------------------------------------------------
      1         29           0        0.000000    0.000000    0.000000
 ---------------------------------------------------------------------

 SCF Done:  E(ROHF) =  -196.225066984     A.U. after   12 cycles
 E2 =    -0.1142168421D+01 EUMP2 =    -0.19736723540413D+03
 CCSD(T)
 CCSD(T)= -0.19728466411D+03

 The electronic state is 2-A1G.
 Alpha  occ. eigenvalues --   -4.92494  -3.33280  -3.33280  -3.33280  -0.48284
 Alpha  occ. eigenvalues --   -0.48284  -0.48284  -0.48284  -0.48284  -0.24337
 Alpha virt. eigenvalues --    0.02225   0.02225   0.02225   0.02722   0.07437
 Alpha virt. eigenvalues --    0.07437   0.07437   0.12328   0.12328   0.12328
 Alpha virt. eigenvalues --    0.12328   0.12328   0.13409   0.24149   0.24149

 Mulliken charges and spin densities:
               1          2
     1  Cu  -0.000000   1.000000
 Sum of Mulliken charges =  -0.00000   1.00000

 Dipole moment (field-independent basis, Debye):
    X=              0.0000    Y=              0.0000    Z=              0.0000  Tot=              0.0000
 Quadrupole moment (field-independent basis, Debye-Ang):
   XX=            -13.9931   YY=            -13.9931   ZZ=            -13.9931
   XY=             -0.0000   XZ=              0.0000   YZ=             -0.0000

 1\1\GINC-C402-022\SP\ROCCSD(T)-Full\Gen\Cu1(2)\GWANG18\05-May-2018\0\\
 #P ROCCSD(T)=(MaxCyc=150, Full)/Gen SCF=(maxcycle=400) Pseudo=Read Int
 egral(NoXCTest) Pop=Regular MaxDisk=500GB Guess=Read IOp(5/15=2)\\Cu\\
 0,2\Cu,0,0.,0.,0.\\Version=ES64L-G16RevA.03\State=2-A1G\HF=-196.225067
 \MP2=-197.3672354\MP3=-197.1737836\PUHF=-196.225067\PMP2-0=-197.367235
 4\MP4SDQ=-197.3131484\CCSD=-197.2481638\CCSD(T)=-197.2846641\RMSD=1.22
 4e-09\PG=OH [O(Cu1)]\\@

 Normal termination of Gaussian 16 at Sat May  5 21:53:39 2018.
