 Gaussian 16, Revision A.03,
 Gaussian 16:  ES64L-G16RevA.03 25-Dec-2016

 ----------------------------------------------------------------------
 #P ROCCSD(T)=(MaxCyc=150, Full)/Gen SCF=(maxcycle=400) Pseudo=Read Int
 egral(NoXCTest) Pop=Regular MaxDisk=500GB Guess=Read IOp(5/15=2)
 ----------------------------------------------------------------------

 --
 Cu
 --
 Symbolic Z-matrix:
 Charge =  0 Multiplicity = 2

                         Standard orientation:
 ---------------------------------------------------------------------
 Center     Atomic      Atomic             Coordinates (Angstroms)
 Number     Number       Type             X           Y           Z
 ---------------------------------------------------------------------
      1         29           0        0.000000    0.000000    0.000000
 ---------------------------------------------------------------------

 SCF Done:  E(ROHF) =  -196.224923102     A.U. after    9 cycles
 E2 =    -0.1117834681D+01 EUMP2 =    -0.19734275778293D+03
 CCSD(T)
 CCSD(T)= -0.19726220130D+03

 The electronic state is 2-A1G.
 Alpha  occ. eigenvalues --   -4.92491  -3.33281  -3.33281  -3.33281  -0.48283
 Alpha  occ. eigenvalues --   -0.48283  -0.48283  -0.48283  -0.48283  -0.24337
 Alpha virt. eigenvalues --    0.02275   0.02275   0.02275   0.03419   0.07738
 Alpha virt. eigenvalues --    0.07738   0.07738   0.13679   0.13679   0.13679
 Alpha virt. eigenvalues --    0.13679   0.13679   0.18322   0.25785   0.25785

 Mulliken charges and spin densities:
               1          2
     1  Cu   0.000000   1.000000
 Sum of Mulliken charges =   0.00000   1.00000

 Dipole moment (field-independent basis, Debye):
    X=              0.0000    Y=              0.0000    Z=              0.0000  Tot=              0.0000
 Quadrupole moment (field-independent basis, Debye-Ang):
   XX=            -13.9935   YY=            -13.9935   ZZ=            -13.9935
   XY=              0.0000   XZ=              0.0000   YZ=             -0.0000

 1\1\GINC-C474-113\SP\ROCCSD(T)-Full\Gen\Cu1(2)\GWANG18\26-Mar-2018\0\\
 #P ROCCSD(T)=(MaxCyc=150, Full)/Gen SCF=(maxcycle=400) Pseudo=Read Int
 egral(NoXCTest) Pop=Regular MaxDisk=500GB Guess=Read IOp(5/15=2)\\Cu\\
 0,2\Cu,0,0.,0.,0.\\Version=ES64L-G16RevA.03\State=2-A1G\HF=-196.224923
 1\MP2=-197.3427578\MP3=-197.1515429\PUHF=-196.2249231\PMP2-0=-197.3427
 578\MP4SDQ=-197.2918359\CCSD=-197.2264274\CCSD(T)=-197.2622013\RMSD=7.
 154e-10\PG=OH [O(Cu1)]\\@

 Normal termination of Gaussian 16 at Mon Mar 26 22:49:24 2018.
