 Gaussian 16, Revision A.03,
 Gaussian 16:  ES64L-G16RevA.03 25-Dec-2016

 ----------------------------------------------------------------------
 #P ROCCSD(T)=(MaxCyc=150, Full)/Gen SCF=(maxcycle=400) Pseudo=Read Int
 egral(NoXCTest) Pop=Regular MaxDisk=500GB Guess=Read IOp(5/15=2)
 ----------------------------------------------------------------------

 --
 Cu
 --
 Symbolic Z-matrix:
 Charge =  0 Multiplicity = 2

                         Standard orientation:
 ---------------------------------------------------------------------
 Center     Atomic      Atomic             Coordinates (Angstroms)
 Number     Number       Type             X           Y           Z
 ---------------------------------------------------------------------
      1         29           0        0.000000    0.000000    0.000000
 ---------------------------------------------------------------------

 SCF Done:  E(ROHF) =  -196.222110203     A.U. after   11 cycles
 E2 =    -0.1067084028D+01 EUMP2 =    -0.19728919423146D+03
 CCSD(T)
 CCSD(T)= -0.19720947382D+03

 The electronic state is 2-A1G.
 Alpha  occ. eigenvalues --   -4.92542  -3.33325  -3.33325  -3.33325  -0.48287
 Alpha  occ. eigenvalues --   -0.48287  -0.48287  -0.48287  -0.48287  -0.24348
 Alpha virt. eigenvalues --    0.02448   0.02448   0.02448   0.03541   0.08908
 Alpha virt. eigenvalues --    0.08908   0.08908   0.18817   0.19876   0.19876
 Alpha virt. eigenvalues --    0.19876   0.19876   0.19876   0.32777   0.32777

 Mulliken charges and spin densities:
               1          2
     1  Cu   0.000000   1.000000
 Sum of Mulliken charges =   0.00000   1.00000

 Dipole moment (field-independent basis, Debye):
    X=              0.0000    Y=              0.0000    Z=              0.0000  Tot=              0.0000
 Quadrupole moment (field-independent basis, Debye-Ang):
   XX=            -13.9931   YY=            -13.9931   ZZ=            -13.9931
   XY=             -0.0000   XZ=             -0.0000   YZ=             -0.0000

 1\1\GINC-C474-113\SP\ROCCSD(T)-Full\Gen\Cu1(2)\GWANG18\26-Mar-2018\0\\
 #P ROCCSD(T)=(MaxCyc=150, Full)/Gen SCF=(maxcycle=400) Pseudo=Read Int
 egral(NoXCTest) Pop=Regular MaxDisk=500GB Guess=Read IOp(5/15=2)\\Cu\\
 0,2\Cu,0,0.,0.,0.\\Version=ES64L-G16RevA.03\State=2-A1G\HF=-196.222110
 2\MP2=-197.2891942\MP3=-197.0996296\PUHF=-196.2221102\PMP2-0=-197.2891
 942\MP4SDQ=-197.24183\CCSD=-197.1757692\CCSD(T)=-197.2094738\RMSD=8.77
 0e-10\PG=OH [O(Cu1)]\\@

 Normal termination of Gaussian 16 at Mon Mar 26 22:22:49 2018.
