 Gaussian 16, Revision A.03,
 Gaussian 16:  ES64L-G16RevA.03 25-Dec-2016

 ----------------------------------------------------------------------
 #P ROCCSD(T)=(maxcyc=150, Full, SaveAmplitudes, ReadAmplitudes)/Gen 5d
  7f SCF=(maxcycles=300) Integral(NoXCTest, DKHSO) MaxDisk=500GB Pop=Re
 gular Guess=Read IOp(5/15=2)
 ----------------------------------------------------------------------

 ---
 ScO
 ---
 Symbolic Z-matrix:
 Charge =  0 Multiplicity = 2

                         Standard orientation:
 ---------------------------------------------------------------------
 Center     Atomic      Atomic             Coordinates (Angstroms)
 Number     Number       Type             X           Y           Z
 ---------------------------------------------------------------------
      1         21           0        0.000000    0.000000    0.413793
      2          8           0        0.000000    0.000000   -1.086207
 ---------------------------------------------------------------------

 SCF Done:  E(ROHF) =  -838.250807361     A.U. after   17 cycles
 E2 =    -0.1080866172D+01 EUMP2 =    -0.83933167353292D+03
 CCSD(T)
 CCSD(T)= -0.83935177850D+03

 The electronic state is 2-SG.
 Alpha  occ. eigenvalues -- -166.80727 -20.50330 -19.25073 -15.67372 -15.67372
 Alpha  occ. eigenvalues --  -15.67254  -2.59626  -1.67707  -1.57446  -1.57446
 Alpha  occ. eigenvalues --   -1.10239  -0.47849  -0.47849  -0.44938  -0.22579
 Alpha virt. eigenvalues --    0.00613   0.00613   0.01952   0.02285   0.03704
 Alpha virt. eigenvalues --    0.03704   0.03851   0.03851   0.04122   0.04331
 Alpha virt. eigenvalues --    0.04331   0.06623   0.09811   0.09811   0.10895

 Mulliken charges and spin densities:
               1          2
     1  Sc   1.305849   0.979008
     2  O   -1.305849   0.020992
 Sum of Mulliken charges =  -0.00000   1.00000

 Dipole moment (field-independent basis, Debye):
    X=              0.0000    Y=              0.0000    Z=              2.7699  Tot=              2.7699
 Quadrupole moment (field-independent basis, Debye-Ang):
   XX=            -22.4905   YY=            -22.4905   ZZ=            -31.5470
   XY=              0.0000   XZ=              0.0000   YZ=              0.0000

 \\#P ROCCSD(T)=(maxcyc=150, Full, SaveAmplitudes, ReadAmplitudes)/Gen
 377\CCSD=-839.3158899\CCSD(T)=-839.3517785\RMSD=1.082e-09\PG=C*V [C*(O
 Normal termination of Gaussian 16 at Tue Feb 20 20:00:17 2018.
