 Gaussian 16, Revision A.03,
 Gaussian 16:  ES64L-G16RevA.03 25-Dec-2016

 ----------------------------------------------------------------------
 #P ROCCSD(T)=(maxcyc=150, Full)/Gen 5d 7f SCF=(maxcycles=300) Integral
 (NoXCTest) MaxDisk=500GB Pop=Regular Pseudo=Read IOp(5/15=2) Guess=Rea
 d
 ----------------------------------------------------------------------

 ---
 ScH
 ---
 Symbolic Z-matrix:
 Charge =  0 Multiplicity = 1

                         Standard orientation:
 ---------------------------------------------------------------------
 Center     Atomic      Atomic             Coordinates (Angstroms)
 Number     Number       Type             X           Y           Z
 ---------------------------------------------------------------------
      1         21           0        0.000000    0.000000    0.081818
      2          1           0        0.000000    0.000000   -1.718182
 ---------------------------------------------------------------------

 SCF Done:  E(ROHF) =  -46.5971910981     A.U. after   11 cycles
 E2 =    -0.4059288401D+00 EUMP2 =    -0.47003119938134D+02
 CCSD(T)
 CCSD(T)= -0.47048055876D+02

 The electronic state is 1-SG.
 Alpha  occ. eigenvalues --   -2.69748  -1.66617  -1.66617  -1.66601  -0.40458
 Alpha  occ. eigenvalues --   -0.23242
 Alpha virt. eigenvalues --    0.01157   0.01157   0.01540   0.02211   0.03556
 Alpha virt. eigenvalues --    0.03835   0.03835   0.03926   0.03926   0.04543
 Alpha virt. eigenvalues --    0.04543   0.04729   0.08261   0.08261   0.09075

 Mulliken charges and spin densities:
               1          2
     1  Sc   0.347945   0.000000
     2  H   -0.347945   0.000000
 Sum of Mulliken charges =  -0.00000   0.00000

 Dipole moment (field-independent basis, Debye):
    X=              0.0000    Y=              0.0000    Z=              1.5153  Tot=              1.5153
 Quadrupole moment (field-independent basis, Debye-Ang):
   XX=            -23.0909   YY=            -23.0909   ZZ=            -26.7997
   XY=              0.0000   XZ=              0.0000   YZ=              0.0000

 P ROCCSD(T)=(maxcyc=150, Full)/Gen 5d 7f SCF=(maxcycles=300) Integral(
 PMP2-0=-47.0031199\MP4SDQ=-47.0299577\CCSD=-47.0297471\CCSD(T)=-47.048
 Normal termination of Gaussian 16 at Wed Feb 14 04:44:36 2018.
