 Gaussian 16, Revision A.03,
 Gaussian 16:  ES64L-G16RevA.03 25-Dec-2016

 ----------------------------------------------------------------------
 #P ROCCSD(T)=(maxcyc=150, Full)/Gen 5d 7f SCF=(maxcycles=300) Integral
 (NoXCTest, DKHSO) MaxDisk=500GB Pop=Regular Guess=Read
 ----------------------------------------------------------------------

 -
 O
 -
 Symbolic Z-matrix:
 Charge =  0 Multiplicity = 3

                         Standard orientation:
 ---------------------------------------------------------------------
 Center     Atomic      Atomic             Coordinates (Angstroms)
 Number     Number       Type             X           Y           Z
 ---------------------------------------------------------------------
      1          8           0        0.000000    0.000000    0.000000
 ---------------------------------------------------------------------

 SCF Done:  E(ROHF) =  -74.8646347303     A.U. after    2 cycles
 E2 =    -0.2322376734D+00 EUMP2 =    -0.75096872403765D+02
 CCSD(T)
 CCSD(T)= -0.75114894140D+02

 Unable to determine electronic state:  an orbital has unidentified symmetry.
 Alpha  occ. eigenvalues --  -20.72079  -1.40637  -0.70238  -0.70238  -0.60620
 Alpha virt. eigenvalues --    0.10433   0.10433   0.10971   0.12049   0.39150
 Alpha virt. eigenvalues --    0.39150   0.39972   0.39972   0.40229   0.46981
 Alpha virt. eigenvalues --    0.46981   0.49228   0.71406   0.95780   0.95780

 Mulliken charges and spin densities:
               1          2
     1  O    0.000000   2.000000
 Sum of Mulliken charges =   0.00000   2.00000

 Dipole moment (field-independent basis, Debye):
    X=              0.0000    Y=             -0.0000    Z=              0.0000  Tot=              0.0000
 Quadrupole moment (field-independent basis, Debye-Ang):
   XX=             -4.6085   YY=             -4.6085   ZZ=             -5.8413
   XY=              0.0000   XZ=             -0.0000   YZ=              0.0000

 P ROCCSD(T)=(maxcyc=150, Full)/Gen 5d 7f SCF=(maxcycles=300) Integral(
 5.1103856\CCSD(T)=-75.1148941\RMSD=8.961e-09\PG=OH [O(O1)]\\@
 Normal termination of Gaussian 16 at Wed Feb 21 16:04:43 2018.
