 Gaussian 16, Revision A.03,
 Gaussian 16:  ES64L-G16RevA.03 25-Dec-2016

 ----------------------------------------------------------------------
 #P ROHF/Gen 5d 7f SCF=(maxcycles=300) Integral(NoXCTest, DKHSO) MaxDis
 k=500GB Pop=Regular
 ----------------------------------------------------------------------

 -
 O
 -
 Symbolic Z-matrix:
 Charge =  0 Multiplicity = 3

                         Standard orientation:
 ---------------------------------------------------------------------
 Center     Atomic      Atomic             Coordinates (Angstroms)
 Number     Number       Type             X           Y           Z
 ---------------------------------------------------------------------
      1          8           0        0.000000    0.000000    0.000000
 ---------------------------------------------------------------------

 SCF Done:  E(ROHF) =  -74.8646347303     A.U. after   10 cycles

 Unable to determine electronic state:  an orbital has unidentified symmetry.
 Alpha  occ. eigenvalues --  -20.67211  -1.19375  -0.55315  -0.17742  -0.17742
 Alpha virt. eigenvalues --    0.10646   0.10646   0.11019   0.12358   0.39562
 Alpha virt. eigenvalues --    0.39562   0.40195   0.40195   0.40407   0.48538
 Alpha virt. eigenvalues --    0.48538   0.49564   0.72687   0.96071   0.96071

 Mulliken charges and spin densities:
               1          2
     1  O   -0.000000   2.000000
 Sum of Mulliken charges =  -0.00000   2.00000

 Dipole moment (field-independent basis, Debye):
    X=              0.0000    Y=             -0.0000    Z=              0.0000  Tot=              0.0000
 Quadrupole moment (field-independent basis, Debye-Ang):
   XX=             -4.6085   YY=             -4.6085   ZZ=             -5.8413
   XY=              0.0000   XZ=             -0.0000   YZ=              0.0000

 Normal termination of Gaussian 16 at Wed Feb 21 15:57:13 2018.
