 Gaussian 16, Revision A.03,
 Gaussian 16:  ES64L-G16RevA.03 25-Dec-2016

 ----------------------------------------------------------------------
 #P ROCCSD(T)=(MaxCyc=150, Full)/Gen SCF=(maxcycle=400, vshift=200) Pse
 udo=Read Integral(NoXCTest) Pop=Regular MaxDisk=500GB Guess=Read IOp(5
 /15=2)
 ----------------------------------------------------------------------

 ---
 ZnH
 ---
 Symbolic Z-matrix:
 Charge =  0 Multiplicity = 2

                         Standard orientation:
 ---------------------------------------------------------------------
 Center     Atomic      Atomic             Coordinates (Angstroms)
 Number     Number       Type             X           Y           Z
 ---------------------------------------------------------------------
      1         30           0        0.000000    0.000000    0.058065
      2          1           0        0.000000    0.000000   -1.741935
 ---------------------------------------------------------------------

 SCF Done:  E(ROHF) =  -226.545695049     A.U. after   18 cycles
 E2 =    -0.1122571478D+01 EUMP2 =    -0.22766826652687D+03
 CCSD(T)
 CCSD(T)= -0.22762704164D+03

 The electronic state is 2-SG.
 Alpha  occ. eigenvalues --   -5.58078  -3.87502  -3.87502  -3.87277  -0.79894
 Alpha  occ. eigenvalues --   -0.79894  -0.79478  -0.79366  -0.79366  -0.43656
 Alpha  occ. eigenvalues --   -0.28571
 Alpha virt. eigenvalues --    0.01778   0.01778   0.02372   0.03220   0.06090
 Alpha virt. eigenvalues --    0.06090   0.06747   0.12151   0.12787   0.15347
 Alpha virt. eigenvalues --    0.15347   0.15365   0.15365   0.17782   0.20827

 Mulliken charges and spin densities:
               1          2
     1  Zn   0.279181   0.902350
     2  H   -0.279181   0.097650
 Sum of Mulliken charges =  -0.00000   1.00000

 Dipole moment (field-independent basis, Debye):
    X=              0.0000    Y=              0.0000    Z=              1.3991  Tot=              1.3991
 Quadrupole moment (field-independent basis, Debye-Ang):
   XX=            -14.6771   YY=            -14.6771   ZZ=            -21.7315
   XY=              0.0000   XZ=              0.0000   YZ=              0.0000

 \\#P ROCCSD(T)=(MaxCyc=150, Full)/Gen SCF=(maxcycle=400, vshift=200) P
 Normal termination of Gaussian 16 at Sun Apr 29 00:33:38 2018.
