 Gaussian 16, Revision A.03,
 Gaussian 16:  ES64L-G16RevA.03 25-Dec-2016

 ----------------------------------------------------------------------
 #P ROCCSD(T)=(MaxCyc=150, Full)/Gen SCF=(maxcycle=400, vshift=200) Pse
 udo=Read Integral(NoXCTest) Pop=Regular MaxDisk=500GB Guess=Read IOp(5
 /15=2)
 ----------------------------------------------------------------------

 ---
 ZnH
 ---
 Symbolic Z-matrix:
 Charge =  0 Multiplicity = 2

                         Standard orientation:
 ---------------------------------------------------------------------
 Center     Atomic      Atomic             Coordinates (Angstroms)
 Number     Number       Type             X           Y           Z
 ---------------------------------------------------------------------
      1         30           0        0.000000    0.000000    0.058065
      2          1           0        0.000000    0.000000   -1.741935
 ---------------------------------------------------------------------

 SCF Done:  E(ROHF) =  -226.545381713     A.U. after   19 cycles
 E2 =    -0.1096266627D+01 EUMP2 =    -0.22764164834036D+03
 CCSD(T)
 CCSD(T)= -0.22760239877D+03

 The electronic state is 2-SG.
 Alpha  occ. eigenvalues --   -5.58065  -3.87502  -3.87502  -3.87276  -0.79894
 Alpha  occ. eigenvalues --   -0.79894  -0.79478  -0.79366  -0.79366  -0.43655
 Alpha  occ. eigenvalues --   -0.28569
 Alpha virt. eigenvalues --    0.01834   0.01834   0.02853   0.03442   0.06501
 Alpha virt. eigenvalues --    0.06501   0.07750   0.13893   0.16314   0.17924
 Alpha virt. eigenvalues --    0.17924   0.17987   0.17987   0.20743   0.23247

 Mulliken charges and spin densities:
               1          2
     1  Zn   0.318189   0.903299
     2  H   -0.318189   0.096701
 Sum of Mulliken charges =  -0.00000   1.00000

 Dipole moment (field-independent basis, Debye):
    X=              0.0000    Y=              0.0000    Z=              1.3985  Tot=              1.3985
 Quadrupole moment (field-independent basis, Debye-Ang):
   XX=            -14.6775   YY=            -14.6775   ZZ=            -21.7343
   XY=              0.0000   XZ=              0.0000   YZ=              0.0000

 \\#P ROCCSD(T)=(MaxCyc=150, Full)/Gen SCF=(maxcycle=400, vshift=200) P
 CCSD(T)=-227.6023988\RMSD=5.461e-09\PG=C*V [C*(H1Zn1)]\\@
 Normal termination of Gaussian 16 at Sat Apr 21 11:19:47 2018.
