 Gaussian 16, Revision A.03,
 Gaussian 16:  ES64L-G16RevA.03 25-Dec-2016

 ----------------------------------------------------------------------
 #P ROCCSD(T)=(MaxCyc=150, Full)/Gen SCF=(maxcycle=400, vshift=200) Pse
 udo=Read Integral(NoXCTest) Pop=Regular MaxDisk=500GB Guess=Read IOp(5
 /15=2)
 ----------------------------------------------------------------------

 ---
 ZnH
 ---
 Symbolic Z-matrix:
 Charge =  0 Multiplicity = 2

                         Standard orientation:
 ---------------------------------------------------------------------
 Center     Atomic      Atomic             Coordinates (Angstroms)
 Number     Number       Type             X           Y           Z
 ---------------------------------------------------------------------
      1         30           0        0.000000    0.000000    0.058065
      2          1           0        0.000000    0.000000   -1.741935
 ---------------------------------------------------------------------

 SCF Done:  E(ROHF) =  -226.543806483     A.U. after   19 cycles
 E2 =    -0.1041810571D+01 EUMP2 =    -0.22758561705354D+03
 CCSD(T)
 CCSD(T)= -0.22754719000D+03

 The electronic state is 2-SG.
 Alpha  occ. eigenvalues --   -5.58093  -3.87519  -3.87519  -3.87288  -0.79892
 Alpha  occ. eigenvalues --   -0.79892  -0.79471  -0.79359  -0.79359  -0.43659
 Alpha  occ. eigenvalues --   -0.28567
 Alpha virt. eigenvalues --    0.01946   0.01946   0.02965   0.03815   0.07436
 Alpha virt. eigenvalues --    0.07436   0.08739   0.15836   0.17179   0.23792
 Alpha virt. eigenvalues --    0.23792   0.24818   0.24818   0.24991   0.29278

 Mulliken charges and spin densities:
               1          2
     1  Zn   0.357879   0.906945
     2  H   -0.357879   0.093055
 Sum of Mulliken charges =   0.00000   1.00000

 Dipole moment (field-independent basis, Debye):
    X=              0.0000    Y=              0.0000    Z=              1.3952  Tot=              1.3952
 Quadrupole moment (field-independent basis, Debye-Ang):
   XX=            -14.6800   YY=            -14.6800   ZZ=            -21.7361
   XY=              0.0000   XZ=              0.0000   YZ=              0.0000

 \\#P ROCCSD(T)=(MaxCyc=150, Full)/Gen SCF=(maxcycle=400, vshift=200) P
 CCSD(T)=-227.54719\RMSD=7.473e-09\PG=C*V [C*(H1Zn1)]\\@
 Normal termination of Gaussian 16 at Sat Apr 21 10:27:11 2018.
