 Gaussian 16, Revision A.03,
 Gaussian 16:  ES64L-G16RevA.03 25-Dec-2016

 ----------------------------------------------------------------------
 #P ROCCSD(T)=(maxcyc=150, Full)/Gen 5d 7f SCF=(maxcycles=300) Integral
 (NoXCTest) MaxDisk=500GB Pop=Regular Pseudo=Read Guess=Read
 ----------------------------------------------------------------------

 ---
 CrH
 ---
 Symbolic Z-matrix:
 Charge =  0 Multiplicity = 6

                         Standard orientation:
 ---------------------------------------------------------------------
 Center     Atomic      Atomic             Coordinates (Angstroms)
 Number     Number       Type             X           Y           Z
 ---------------------------------------------------------------------
      1         24           0        0.000000    0.000000    0.040000
      2          1           0        0.000000    0.000000   -0.960000
 ---------------------------------------------------------------------

 SCF Done:  E(ROHF) =  -86.4424991939     A.U. after   37 cycles
 E2 =    -0.6308683307D+00 EUMP2 =    -0.87073367524598D+02
 CCSD(T)
 CCSD(T)= -0.87083398618D+02

 The electronic state is 6-SG.
 Alpha  occ. eigenvalues --   -3.60681  -2.37723  -2.35149  -2.35149  -0.50114
 Alpha  occ. eigenvalues --   -0.42441  -0.42441  -0.39201  -0.39201  -0.24653
 Alpha virt. eigenvalues --    0.01558   0.01796   0.01796   0.02259   0.04768
 Alpha virt. eigenvalues --    0.05510   0.05510   0.05519   0.05519   0.05887
 Alpha virt. eigenvalues --    0.05989   0.05989   0.09301   0.13679   0.16760

 Mulliken charges and spin densities:
               1          2
     1  Cr   0.195391   4.996378
     2  H   -0.195391   0.003622
 Sum of Mulliken charges =  -0.00000   5.00000

 Dipole moment (field-independent basis, Debye):
    X=              0.0000    Y=              0.0000    Z=              1.9482  Tot=              1.9482
 Quadrupole moment (field-independent basis, Debye-Ang):
   XX=            -16.4516   YY=            -16.4516   ZZ=            -17.4693
   XY=              0.0000   XZ=              0.0000   YZ=              0.0000

 \\#P ROCCSD(T)=(maxcyc=150, Full)/Gen 5d 7f SCF=(maxcycles=300) Integr
 .0733675\MP4SDQ=-87.0626279\CCSD=-87.0611219\CCSD(T)=-87.0833986\RMSD=
 Normal termination of Gaussian 16 at Mon Feb 12 16:06:05 2018.
