 Gaussian 16, Revision A.03,
 Gaussian 16:  ES64L-G16RevA.03 25-Dec-2016

 ----------------------------------------------------------------------
 #P ROCCSD(T)=(maxcyc=150, Full, SaveAmplitudes, ReadAmplitudes)/Gen 5d
  7f SCF=(maxcycles=300) Integral(NoXCTest) MaxDisk=500GB Pop=Regular P
 seudo=Read Guess=Read
 ----------------------------------------------------------------------

 ---
 ScO
 ---
 Symbolic Z-matrix:
 Charge =  0 Multiplicity = 2

                         Standard orientation:
 ---------------------------------------------------------------------
 Center     Atomic      Atomic             Coordinates (Angstroms)
 Number     Number       Type             X           Y           Z
 ---------------------------------------------------------------------
      1         21           0        0.000000    0.000000    0.524138
      2          8           0        0.000000    0.000000   -1.375862
 ---------------------------------------------------------------------

 SCF Done:  E(ROHF) =  -61.8950421869     A.U. after   17 cycles
 E2 =    -0.7185428332D+00 EUMP2 =    -0.62613585020132D+02
 CCSD(T)
 CCSD(T)= -0.62643672868D+02

 The electronic state is 2-SG.
 Alpha  occ. eigenvalues --   -2.70750  -1.68878  -1.68832  -1.68832  -1.10969
 Alpha  occ. eigenvalues --   -0.40285  -0.36510  -0.36510  -0.27409
 Alpha virt. eigenvalues --   -0.00886  -0.00886   0.00821   0.01804   0.02573
 Alpha virt. eigenvalues --    0.02573   0.02605   0.02605   0.03258   0.03258
 Alpha virt. eigenvalues --    0.03442   0.03909   0.05281   0.05281   0.08878

 Mulliken charges and spin densities:
               1          2
     1  Sc   1.224566   0.983795
     2  O   -1.224566   0.016205
 Sum of Mulliken charges =  -0.00000   1.00000

 Dipole moment (field-independent basis, Debye):
    X=              0.0000    Y=              0.0000    Z=              6.6049  Tot=              6.6049
 Quadrupole moment (field-independent basis, Debye-Ang):
   XX=            -21.9918   YY=            -21.9918   ZZ=            -34.2011
   XY=              0.0000   XZ=              0.0000   YZ=              0.0000

 \\#P ROCCSD(T)=(maxcyc=150, Full, SaveAmplitudes, ReadAmplitudes)/Gen
 50422\PMP2-0=-62.613585\CCSD=-62.5944871\CCSD(T)=-62.6436729\RMSD=2.13
 Normal termination of Gaussian 16 at Wed Feb 21 08:01:20 2018.
