 Gaussian 16, Revision A.03,
 Gaussian 16:  ES64L-G16RevA.03 25-Dec-2016

 ----------------------------------------------------------------------
 #P ROCCSD(T)=(maxcyc=150, Full, SaveAmplitudes, ReadAmplitudes)/Gen 5d
  7f SCF=(maxcycles=300) Integral(NoXCTest) MaxDisk=500GB Pop=Regular P
 seudo=Read Guess=Read IOp(5/15=2)
 ----------------------------------------------------------------------

 ---
 CrO
 ---
 Symbolic Z-matrix:
 Charge =  0 Multiplicity = 5

                         Standard orientation:
 ---------------------------------------------------------------------
 Center     Atomic      Atomic             Coordinates (Angstroms)
 Number     Number       Type             X           Y           Z
 ---------------------------------------------------------------------
      1         24           0        0.000000    0.000000    0.300000
      2          8           0        0.000000    0.000000   -0.900000
 ---------------------------------------------------------------------

 SCF Done:  E(ROHF) =  -101.564972248     A.U. after   31 cycles
 E2 =    -0.8806873611D+00 EUMP2 =    -0.10244565960946D+03
 CCSD(T)
 CCSD(T)= -0.10245225677D+03

 Unable to determine electronic state:  an orbital has unidentified symmetry.
 Alpha  occ. eigenvalues --   -3.73087  -2.51640  -2.47206  -2.43478  -1.26886
 Alpha  occ. eigenvalues --   -0.75064  -0.69080  -0.65622  -0.50404  -0.50314
 Alpha  occ. eigenvalues --   -0.30226  -0.26336
 Alpha virt. eigenvalues --    0.01445   0.02447   0.02796   0.02816   0.05410
 Alpha virt. eigenvalues --    0.07015   0.07665   0.07741   0.07793   0.07796
 Alpha virt. eigenvalues --    0.09670   0.09963   0.12211   0.17835   0.20667

 Mulliken charges and spin densities:
               1          2
     1  Cr   0.827399   3.724433
     2  O   -0.827399   0.275567
 Sum of Mulliken charges =   0.00000   4.00000

 Dipole moment (field-independent basis, Debye):
    X=              0.0000    Y=              0.0000    Z=              0.2458  Tot=              0.2458
 Quadrupole moment (field-independent basis, Debye-Ang):
   XX=            -22.8576   YY=            -19.9779   ZZ=            -22.8640
   XY=              0.0000   XZ=              0.0000   YZ=              0.0000

 \\#P ROCCSD(T)=(maxcyc=150, Full, SaveAmplitudes, ReadAmplitudes)/Gen
 =-102.4135211\CCSD(T)=-102.4522568\RMSD=2.685e-09\PG=C*V [C*(O1Cr1)]\\
 Normal termination of Gaussian 16 at Fri Mar  9 16:15:17 2018.
