 Gaussian 16, Revision A.03,
 Gaussian 16:  ES64L-G16RevA.03 25-Dec-2016

 ----------------------------------------------------------------------
 #P ROCCSD(T)=(maxcyc=150, Window=(6,0), SaveAmplitudes, ReadAmplitudes
 )/Gen 5d 7f SCF=(maxcycles=300) Integral(NoXCTest, DKHSO) MaxDisk=500G
 B Pop=Regular Guess=Read
 ----------------------------------------------------------------------

 ---
 MnH
 ---
 Symbolic Z-matrix:
 Charge =  0 Multiplicity = 7

                         Standard orientation:
 ---------------------------------------------------------------------
 Center     Atomic      Atomic             Coordinates (Angstroms)
 Number     Number       Type             X           Y           Z
 ---------------------------------------------------------------------
      1         25           0        0.000000    0.000000    0.065385
      2          1           0        0.000000    0.000000   -1.634615
 ---------------------------------------------------------------------

 SCF Done:  E(ROHF) =  -1157.94665417     A.U. after   20 cycles
 E2 =    -0.5833907718D+00 EUMP2 =    -0.11585300449450D+04
 CCSD(T)
 CCSD(T)= -0.11585449029D+04

 The electronic state is 7-SG.
 Alpha  occ. eigenvalues -- -242.50004 -29.60356 -24.95812 -24.95812 -24.95725
 Alpha  occ. eigenvalues --   -4.09289  -2.74585  -2.74585  -2.74402  -0.64214
 Alpha  occ. eigenvalues --   -0.64214  -0.63975  -0.63486  -0.63486  -0.40819
 Alpha  occ. eigenvalues --   -0.26086
 Alpha virt. eigenvalues --    0.01189   0.01189   0.02150   0.02928   0.05057
 Alpha virt. eigenvalues --    0.05057   0.05650   0.05804   0.05804   0.06196
 Alpha virt. eigenvalues --    0.06196   0.09058   0.13361   0.14114   0.18070

 Mulliken charges and spin densities:
               1          2
     1  Mn   0.361586   5.951030
     2  H   -0.361586   0.048970
 Sum of Mulliken charges =  -0.00000   6.00000

 Dipole moment (field-independent basis, Debye):
    X=              0.0000    Y=              0.0000    Z=              1.2891  Tot=              1.2891
 Quadrupole moment (field-independent basis, Debye-Ang):
   XX=            -16.4619   YY=            -16.4619   ZZ=            -26.6592
   XY=              0.0000   XZ=              0.0000   YZ=              0.0000

 1\1\GINC-C504-081\SP\ROCCSD(T)-RW\Gen\H1Mn1(7)\AANNABE\26-Feb-2018\0\\
 #P ROCCSD(T)=(maxcyc=150, Window=(6,0), SaveAmplitudes, ReadAmplitudes
 )/Gen 5d 7f SCF=(maxcycles=300) Integral(NoXCTest, DKHSO) MaxDisk=500G
 B Pop=Regular Guess=Read\\MnH\\0,7\Mn,0,0.,0.,0.\H,0,0.,0.,1.7\\Versio
 n=ES64L-G16RevA.03\State=7-SG\HF=-1157.9466542\MP2=-1158.5300449\PUHF=
 -1157.9466542\PMP2-0=-1158.5300449\CCSD=-1158.5294599\CCSD(T)=-1158.54
 49029\RMSD=9.339e-09\PG=C*V [C*(H1Mn1)]\\@

 Normal termination of Gaussian 16 at Mon Feb 26 01:45:53 2018.
