 Gaussian 16, Revision A.03,
 Gaussian 16:  ES64L-G16RevA.03 25-Dec-2016

 ----------------------------------------------------------------------
 #P ROCCSD(T)=(maxcyc=150, Full, SaveAmplitudes, ReadAmplitudes)/Gen 5d
  7f SCF=(maxcycles=300) Integral(NoXCTest) MaxDisk=500GB Pop=Regular P
 seudo=Read Guess=Read IOp(5/15=2)
 ----------------------------------------------------------------------

 ---
 CrO
 ---
 Symbolic Z-matrix:
 Charge =  0 Multiplicity = 5

                         Standard orientation:
 ---------------------------------------------------------------------
 Center     Atomic      Atomic             Coordinates (Angstroms)
 Number     Number       Type             X           Y           Z
 ---------------------------------------------------------------------
      1         24           0        0.000000    0.000000    0.425000
      2          8           0        0.000000    0.000000   -1.275000
 ---------------------------------------------------------------------

 SCF Done:  E(ROHF) =  -101.848899232     A.U. after   47 cycles
 E2 =    -0.8597756302D+00 EUMP2 =    -0.10270867486167D+03
 CCSD(T)
 CCSD(T)= -0.10275350708D+03

 Unable to determine electronic state:  an orbital has unidentified symmetry.
 Alpha  occ. eigenvalues --   -3.74518  -2.50394  -2.45757  -2.44552  -1.12160
 Alpha  occ. eigenvalues --   -0.56078  -0.55890  -0.54180  -0.49601  -0.36781
 Alpha  occ. eigenvalues --   -0.34004  -0.32861
 Alpha virt. eigenvalues --   -0.03364   0.00877   0.01581   0.02222   0.03724
 Alpha virt. eigenvalues --    0.05064   0.06374   0.07513   0.07529   0.07693
 Alpha virt. eigenvalues --    0.08302   0.08784   0.13281   0.14584   0.15618

 Mulliken charges and spin densities:
               1          2
     1  Cr   1.169319   3.901785
     2  O   -1.169319   0.098215
 Sum of Mulliken charges =  -0.00000   4.00000

 Dipole moment (field-independent basis, Debye):
    X=              0.0000    Y=              0.0000    Z=              8.8104  Tot=              8.8104
 Quadrupole moment (field-independent basis, Debye-Ang):
   XX=            -19.7816   YY=            -18.7446   ZZ=            -23.1331
   XY=              0.0000   XZ=              0.0000   YZ=              0.0000

 \\#P ROCCSD(T)=(maxcyc=150, Full, SaveAmplitudes, ReadAmplitudes)/Gen
 SD=-102.7035822\CCSD(T)=-102.7535071\RMSD=5.805e-09\PG=C*V [C*(O1Cr1)]
 Normal termination of Gaussian 16 at Sat Mar 10 08:05:12 2018.
