 Gaussian 16, Revision A.03,
 Gaussian 16:  ES64L-G16RevA.03 25-Dec-2016

 ----------------------------------------------------------------------
 #P ROCCSD(T)=(maxcyc=150, Full, ReadAmplitudes)/Gen 5d 7f SCF=(maxcycl
 es=300) Integral(NoXCTest) MaxDisk=500GB Pop=Regular Pseudo=Read Guess
 =Read
 ----------------------------------------------------------------------

 ---
 CrH
 ---
 Symbolic Z-matrix:
 Charge =  0 Multiplicity = 6

                         Standard orientation:
 ---------------------------------------------------------------------
 Center     Atomic      Atomic             Coordinates (Angstroms)
 Number     Number       Type             X           Y           Z
 ---------------------------------------------------------------------
      1         24           0        0.000000    0.000000    0.080000
      2          1           0        0.000000    0.000000   -1.920000
 ---------------------------------------------------------------------

 SCF Done:  E(ROHF) =  -86.8729312792     A.U. after   21 cycles
 E2 =    -0.5603733201D+00 EUMP2 =    -0.87433304599249D+02
 CCSD(T)
 CCSD(T)= -0.87483955504D+02

 The electronic state is 6-SG.
 Alpha  occ. eigenvalues --   -3.77884  -2.47795  -2.47795  -2.42765  -0.58178
 Alpha  occ. eigenvalues --   -0.58178  -0.54619  -0.54619  -0.37877  -0.26845
 Alpha virt. eigenvalues --    0.00988   0.00988   0.01737   0.02369   0.04294
 Alpha virt. eigenvalues --    0.04585   0.04585   0.04880   0.04880   0.05231
 Alpha virt. eigenvalues --    0.05231   0.06344   0.08580   0.10990   0.15169

 Mulliken charges and spin densities:
               1          2
     1  Cr   0.344299   4.966791
     2  H   -0.344299   0.033209
 Sum of Mulliken charges =  -0.00000   5.00000

 Dipole moment (field-independent basis, Debye):
    X=              0.0000    Y=              0.0000    Z=              2.9901  Tot=              2.9901
 Quadrupole moment (field-independent basis, Debye-Ang):
   XX=            -17.1455   YY=            -17.1455   ZZ=            -26.8398
   XY=              0.0000   XZ=              0.0000   YZ=              0.0000

 \\#P ROCCSD(T)=(maxcyc=150, Full, ReadAmplitudes)/Gen 5d 7f SCF=(maxcy
 .4333046\CCSD=-87.4675735\CCSD(T)=-87.4839555\RMSD=2.139e-09\PG=C*V [C
 Normal termination of Gaussian 16 at Mon Feb 26 20:29:32 2018.
