 Gaussian 16, Revision A.03,
 Gaussian 16:  ES64L-G16RevA.03 25-Dec-2016

 ----------------------------------------------------------------------
 #P ROCCSD(T)=(maxcyc=150, Full, SaveAmplitudes, ReadAmplitudes)/Gen 5d
  7f SCF=(maxcycles=300, VShift=400) Integral(NoXCTest) MaxDisk=500GB P
 op=Full Pseudo=Read Guess=Read IOp(5/15=2)
 ----------------------------------------------------------------------

 ---
 MnO
 ---
 Symbolic Z-matrix:
 Charge =  0 Multiplicity = 6

                         Standard orientation:
 ---------------------------------------------------------------------
 Center     Atomic      Atomic             Coordinates (Angstroms)
 Number     Number       Type             X           Y           Z
 ---------------------------------------------------------------------
      1         25           0        0.000000    0.000000    0.460606
      2          8           0        0.000000    0.000000   -1.439394
 ---------------------------------------------------------------------

 SCF Done:  E(ROHF) =  -118.893402033     A.U. after   70 cycles
 E2 =    -0.8894582997D+00 EUMP2 =    -0.11978286033289D+03
 CCSD(T)
 CCSD(T)= -0.11981036595D+03

 The electronic state is 6-SG.
 Alpha  occ. eigenvalues --   -4.16197  -2.78441  -2.78441  -2.78002  -1.10385
 Alpha  occ. eigenvalues --   -0.66045  -0.66045  -0.65937  -0.65937  -0.63425
 Alpha  occ. eigenvalues --   -0.34815  -0.34815  -0.32331
 Alpha virt. eigenvalues --   -0.05268   0.01310   0.01310   0.01633   0.03799
 Alpha virt. eigenvalues --    0.06265   0.06265   0.08239   0.08315   0.08315
 Alpha virt. eigenvalues --    0.09308   0.09308   0.12684   0.13900   0.22517

 Mulliken charges and spin densities:
               1          2
     1  Mn   1.060454   4.953834
     2  O   -1.060454   0.046166
 Sum of Mulliken charges =  -0.00000   5.00000

 Dipole moment (field-independent basis, Debye):
    X=              0.0000    Y=              0.0000    Z=              9.2331  Tot=              9.2331
 Quadrupole moment (field-independent basis, Debye-Ang):
   XX=            -19.3406   YY=            -19.3406   ZZ=            -25.2333
   XY=              0.0000   XZ=              0.0000   YZ=              0.0000

 \\#P ROCCSD(T)=(maxcyc=150, Full, SaveAmplitudes, ReadAmplitudes)/Gen
 DQ=-119.7783811\CCSD=-119.7707429\CCSD(T)=-119.8103659\RMSD=9.815e-09\
 Normal termination of Gaussian 16 at Sat May  5 07:13:25 2018.
