 Gaussian 16, Revision A.03,
 Gaussian 16:  ES64L-G16RevA.03 25-Dec-2016

 ----------------------------------------------------------------------
 #P ROCCSD(T)=(maxcyc=150, Full, SaveAmplitudes, ReadAmplitudes)/Gen 5d
  7f SCF=(maxcycles=300) Integral(NoXCTest) MaxDisk=500GB Pop=Regular P
 seudo=Read Guess=Read
 ----------------------------------------------------------------------

 ---
 ScO
 ---
 Symbolic Z-matrix:
 Charge =  0 Multiplicity = 2

                         Standard orientation:
 ---------------------------------------------------------------------
 Center     Atomic      Atomic             Coordinates (Angstroms)
 Number     Number       Type             X           Y           Z
 ---------------------------------------------------------------------
      1         21           0        0.000000    0.000000    0.331034
      2          8           0        0.000000    0.000000   -0.868966
 ---------------------------------------------------------------------

 SCF Done:  E(ROHF) =  -61.7739663554     A.U. after   17 cycles
 E2 =    -0.6895457618D+00 EUMP2 =    -0.62463512117165D+02
 CCSD(T)
 CCSD(T)= -0.62491130112D+02

 The electronic state is 2-SG.
 Alpha  occ. eigenvalues --   -2.64184  -1.81812  -1.52156  -1.52156  -1.03878
 Alpha  occ. eigenvalues --   -0.63498  -0.63498  -0.47531  -0.18006
 Alpha virt. eigenvalues --    0.01008   0.01008   0.01662   0.02517   0.02826
 Alpha virt. eigenvalues --    0.02826   0.02863   0.02863   0.02884   0.04348
 Alpha virt. eigenvalues --    0.04348   0.06540   0.08171   0.08171   0.08395

 Mulliken charges and spin densities:
               1          2
     1  Sc   0.807390   1.018172
     2  O   -0.807390  -0.018172
 Sum of Mulliken charges =  -0.00000   1.00000

 Dipole moment (field-independent basis, Debye):
    X=              0.0000    Y=              0.0000    Z=             -1.1339  Tot=              1.1339
 Quadrupole moment (field-independent basis, Debye-Ang):
   XX=            -23.3522   YY=            -23.3522   ZZ=            -28.7851
   XY=              0.0000   XZ=              0.0000   YZ=              0.0000

 \\#P ROCCSD(T)=(maxcyc=150, Full, SaveAmplitudes, ReadAmplitudes)/Gen
 739664\PMP2-0=-62.4635121\CCSD=-62.4618204\CCSD(T)=-62.4911301\RMSD=9.
 Normal termination of Gaussian 16 at Tue Feb 20 22:18:34 2018.
