 Gaussian 16, Revision A.03,
 Gaussian 16:  ES64L-G16RevA.03 25-Dec-2016

 ----------------------------------------------------------------------
 #P ROCCSD(T)=(maxcyc=150, Full, SaveAmplitudes, ReadAmplitudes)/Gen 5d
  7f SCF=(maxcycles=300) Integral(NoXCTest) MaxDisk=500GB Pop=Regular P
 seudo=Read Guess=Read
 ----------------------------------------------------------------------

 ---
 ScO
 ---
 Symbolic Z-matrix:
 Charge =  0 Multiplicity = 2

                         Standard orientation:
 ---------------------------------------------------------------------
 Center     Atomic      Atomic             Coordinates (Angstroms)
 Number     Number       Type             X           Y           Z
 ---------------------------------------------------------------------
      1         21           0        0.000000    0.000000    0.441379
      2          8           0        0.000000    0.000000   -1.158621
 ---------------------------------------------------------------------

 SCF Done:  E(ROHF) =  -61.9663123761     A.U. after   17 cycles
 E2 =    -0.7090768203D+00 EUMP2 =    -0.62675389196438D+02
 CCSD(T)
 CCSD(T)= -0.62701441143D+02

 The electronic state is 2-SG.
 Alpha  occ. eigenvalues --   -2.63725  -1.66814  -1.60873  -1.60873  -1.12561
 Alpha  occ. eigenvalues --   -0.44185  -0.44185  -0.43872  -0.23977
 Alpha virt. eigenvalues --    0.00294   0.00294   0.01541   0.02088   0.02735
 Alpha virt. eigenvalues --    0.02735   0.03027   0.03027   0.03276   0.03390
 Alpha virt. eigenvalues --    0.03390   0.05168   0.07264   0.07264   0.09312

 Mulliken charges and spin densities:
               1          2
     1  Sc   1.255476   0.990603
     2  O   -1.255476   0.009397
 Sum of Mulliken charges =  -0.00000   1.00000

 Dipole moment (field-independent basis, Debye):
    X=              0.0000    Y=              0.0000    Z=              3.8561  Tot=              3.8561
 Quadrupole moment (field-independent basis, Debye-Ang):
   XX=            -21.8722   YY=            -21.8722   ZZ=            -31.7828
   XY=              0.0000   XZ=              0.0000   YZ=              0.0000

 \\#P ROCCSD(T)=(maxcyc=150, Full, SaveAmplitudes, ReadAmplitudes)/Gen
 663124\PMP2-0=-62.6753892\CCSD=-62.6618231\CCSD(T)=-62.7014411\RMSD=4.
 Normal termination of Gaussian 16 at Mon Mar  5 19:37:14 2018.
