 Gaussian 16, Revision A.03,
 Gaussian 16:  ES64L-G16RevA.03 25-Dec-2016

 ----------------------------------------------------------------------
 #P ROCCSD(T)=(MaxCyc=150, Full)/Gen SCF=(maxcycle=400, vshift=200) Pse
 udo=Read Integral(NoXCTest) Pop=Regular MaxDisk=500GB Guess=Read IOp(5
 /15=2)
 ----------------------------------------------------------------------

 ---
 ZnH
 ---
 Symbolic Z-matrix:
 Charge =  0 Multiplicity = 2

                         Standard orientation:
 ---------------------------------------------------------------------
 Center     Atomic      Atomic             Coordinates (Angstroms)
 Number     Number       Type             X           Y           Z
 ---------------------------------------------------------------------
      1         30           0        0.000000    0.000000    0.038710
      2          1           0        0.000000    0.000000   -1.161290
 ---------------------------------------------------------------------

 SCF Done:  E(ROHF) =  -226.495322464     A.U. after   23 cycles
 E2 =    -0.1139906412D+01 EUMP2 =    -0.22763522887617D+03
 CCSD(T)
 CCSD(T)= -0.22758338726D+03

 The electronic state is 2-SG.
 Alpha  occ. eigenvalues --   -5.58756  -3.88599  -3.87736  -3.87736  -0.82699
 Alpha  occ. eigenvalues --   -0.80012  -0.80012  -0.79968  -0.79968  -0.48947
 Alpha  occ. eigenvalues --   -0.26822
 Alpha virt. eigenvalues --    0.01970   0.01970   0.02108   0.03387   0.06374
 Alpha virt. eigenvalues --    0.06374   0.06967   0.11895   0.13960   0.15330
 Alpha virt. eigenvalues --    0.15330   0.15562   0.15562   0.19216   0.20368

 Mulliken charges and spin densities:
               1          2
     1  Zn   0.311191   0.951275
     2  H   -0.311191   0.048725
 Sum of Mulliken charges =  -0.00000   1.00000

 Dipole moment (field-independent basis, Debye):
    X=              0.0000    Y=              0.0000    Z=             -0.2496  Tot=              0.2496
 Quadrupole moment (field-independent basis, Debye-Ang):
   XX=            -14.2663   YY=            -14.2663   ZZ=            -20.2835
   XY=              0.0000   XZ=              0.0000   YZ=              0.0000

 \\#P ROCCSD(T)=(MaxCyc=150, Full)/Gen SCF=(maxcycle=400, vshift=200) P
 CCSD(T)=-227.5833873\RMSD=3.236e-09\PG=C*V [C*(H1Zn1)]\\@
 Normal termination of Gaussian 16 at Sun Apr 29 00:34:14 2018.
