 Gaussian 16, Revision A.03,
 Gaussian 16:  ES64L-G16RevA.03 25-Dec-2016

 ----------------------------------------------------------------------
 #P ROCCSD(T)=(MaxCyc=150, Full)/Gen SCF=(maxcycle=400, vshift=200) Pse
 udo=Read Integral(NoXCTest) Pop=Regular MaxDisk=500GB Guess=Read IOp(5
 /15=2)
 ----------------------------------------------------------------------

 ---
 ZnH
 ---
 Symbolic Z-matrix:
 Charge =  0 Multiplicity = 2

                         Standard orientation:
 ---------------------------------------------------------------------
 Center     Atomic      Atomic             Coordinates (Angstroms)
 Number     Number       Type             X           Y           Z
 ---------------------------------------------------------------------
      1         30           0        0.000000    0.000000    0.038710
      2          1           0        0.000000    0.000000   -1.161290
 ---------------------------------------------------------------------

 SCF Done:  E(ROHF) =  -226.494998533     A.U. after   22 cycles
 E2 =    -0.1113594749D+01 EUMP2 =    -0.22760859328160D+03
 CCSD(T)
 CCSD(T)= -0.22755876763D+03

 The electronic state is 2-SG.
 Alpha  occ. eigenvalues --   -5.58744  -3.88601  -3.87738  -3.87738  -0.82701
 Alpha  occ. eigenvalues --   -0.80013  -0.80013  -0.79970  -0.79970  -0.48947
 Alpha  occ. eigenvalues --   -0.26821
 Alpha virt. eigenvalues --    0.02034   0.02034   0.02409   0.03805   0.06796
 Alpha virt. eigenvalues --    0.06796   0.08036   0.14572   0.17714   0.17840
 Alpha virt. eigenvalues --    0.17840   0.18256   0.18256   0.21931   0.22878

 Mulliken charges and spin densities:
               1          2
     1  Zn   0.261130   0.945377
     2  H   -0.261130   0.054623
 Sum of Mulliken charges =  -0.00000   1.00000

 Dipole moment (field-independent basis, Debye):
    X=              0.0000    Y=              0.0000    Z=             -0.2492  Tot=              0.2492
 Quadrupole moment (field-independent basis, Debye-Ang):
   XX=            -14.2685   YY=            -14.2685   ZZ=            -20.2828
   XY=              0.0000   XZ=              0.0000   YZ=              0.0000

 \\#P ROCCSD(T)=(MaxCyc=150, Full)/Gen SCF=(maxcycle=400, vshift=200) P
 CCSD(T)=-227.5587676\RMSD=7.055e-09\PG=C*V [C*(H1Zn1)]\\@
 Normal termination of Gaussian 16 at Sat Apr 21 11:18:18 2018.
