 Gaussian 16, Revision A.03,
 Gaussian 16:  ES64L-G16RevA.03 25-Dec-2016

 ----------------------------------------------------------------------
 #P ROCCSD(T)=(MaxCyc=150, Full)/Gen SCF=(maxcycle=400, vshift=200) Pse
 udo=Read Integral(NoXCTest) Pop=Regular MaxDisk=500GB Guess=Read IOp(5
 /15=2)
 ----------------------------------------------------------------------

 ---
 ZnH
 ---
 Symbolic Z-matrix:
 Charge =  0 Multiplicity = 2

                         Standard orientation:
 ---------------------------------------------------------------------
 Center     Atomic      Atomic             Coordinates (Angstroms)
 Number     Number       Type             X           Y           Z
 ---------------------------------------------------------------------
      1         30           0        0.000000    0.000000    0.038710
      2          1           0        0.000000    0.000000   -1.161290
 ---------------------------------------------------------------------

 SCF Done:  E(ROHF) =  -226.493325751     A.U. after   18 cycles
 E2 =    -0.1059010780D+01 EUMP2 =    -0.22755233653108D+03
 CCSD(T)
 CCSD(T)= -0.22750340465D+03

 The electronic state is 2-SG.
 Alpha  occ. eigenvalues --   -5.58777  -3.88618  -3.87758  -3.87758  -0.82699
 Alpha  occ. eigenvalues --   -0.80011  -0.80011  -0.79971  -0.79971  -0.48951
 Alpha  occ. eigenvalues --   -0.26821
 Alpha virt. eigenvalues --    0.02160   0.02160   0.02581   0.04142   0.07738
 Alpha virt. eigenvalues --    0.07738   0.08960   0.16104   0.19176   0.24481
 Alpha virt. eigenvalues --    0.24481   0.25193   0.25193   0.26910   0.28300

 Mulliken charges and spin densities:
               1          2
     1  Zn   0.295785   0.960030
     2  H   -0.295785   0.039970
 Sum of Mulliken charges =  -0.00000   1.00000

 Dipole moment (field-independent basis, Debye):
    X=              0.0000    Y=              0.0000    Z=             -0.2481  Tot=              0.2481
 Quadrupole moment (field-independent basis, Debye-Ang):
   XX=            -14.2741   YY=            -14.2741   ZZ=            -20.2770
   XY=              0.0000   XZ=              0.0000   YZ=              0.0000

 \\#P ROCCSD(T)=(MaxCyc=150, Full)/Gen SCF=(maxcycle=400, vshift=200) P
 CCSD(T)=-227.5034046\RMSD=8.573e-09\PG=C*V [C*(H1Zn1)]\\@
 Normal termination of Gaussian 16 at Sat Apr 21 10:25:48 2018.
