 Gaussian 16, Revision A.03,
 Gaussian 16:  ES64L-G16RevA.03 25-Dec-2016

 ----------------------------------------------------------------------
 #P ROCCSD(T)=(maxcyc=150, Full)/Gen 5d 7f SCF=(maxcycles=300) Integral
 (NoXCTest, DKHSO) MaxDisk=500GB Pop=Regular IOp(5/15=2) Guess=Read
 ----------------------------------------------------------------------

 ---
 MnH
 ---
 Symbolic Z-matrix:
 Charge =  0 Multiplicity = 7

                         Standard orientation:
 ---------------------------------------------------------------------
 Center     Atomic      Atomic             Coordinates (Angstroms)
 Number     Number       Type             X           Y           Z
 ---------------------------------------------------------------------
      1         25           0        0.000000    0.000000    0.080769
      2          1           0        0.000000    0.000000   -2.019231
 ---------------------------------------------------------------------

 SCF Done:  E(ROHF) =  -1157.93655112     A.U. after   20 cycles
 E2 =    -0.9958474845D+00 EUMP2 =    -0.11589323986055D+04
 CCSD(T)
 CCSD(T)= -0.11589438141D+04

 The electronic state is 7-SG.
 Alpha  occ. eigenvalues -- -242.52009 -29.62188 -24.97643 -24.97643 -24.97592
 Alpha  occ. eigenvalues --   -4.11162  -2.76490  -2.76490  -2.76214  -0.66023
 Alpha  occ. eigenvalues --   -0.66023  -0.65350  -0.65350  -0.65241  -0.38017
 Alpha  occ. eigenvalues --   -0.27214
 Alpha virt. eigenvalues --    0.00857   0.00857   0.02104   0.02923   0.04773
 Alpha virt. eigenvalues --    0.04773   0.05537   0.05732   0.05732   0.06194
 Alpha virt. eigenvalues --    0.06194   0.09780   0.11745   0.13462   0.17956

 Mulliken charges and spin densities:
               1          2
     1  Mn   0.390395   5.951098
     2  H   -0.390395   0.048902
 Sum of Mulliken charges =  -0.00000   6.00000

 Dipole moment (field-independent basis, Debye):
    X=              0.0000    Y=              0.0000    Z=              2.7997  Tot=              2.7997
 Quadrupole moment (field-independent basis, Debye-Ang):
   XX=            -16.8457   YY=            -16.8457   ZZ=            -29.0325
   XY=              0.0000   XZ=              0.0000   YZ=              0.0000

 \\#P ROCCSD(T)=(maxcyc=150, Full)/Gen 5d 7f SCF=(maxcycles=300) Integr
 Normal termination of Gaussian 16 at Wed Feb 14 23:34:25 2018.
