 Gaussian 16, Revision A.03,
 Gaussian 16:  ES64L-G16RevA.03 25-Dec-2016

 ----------------------------------------------------------------------
 #P ROCCSD(T)=(maxcyc=150, Full)/Gen 5d 7f SCF=(maxcycles=300) Integral
 (NoXCTest) MaxDisk=500GB Pop=Regular Pseudo=Read IOp(5/15=2) Guess=Rea
 d
 ----------------------------------------------------------------------

 ---
 ScH
 ---
 Symbolic Z-matrix:
 Charge =  0 Multiplicity = 1

                         Standard orientation:
 ---------------------------------------------------------------------
 Center     Atomic      Atomic             Coordinates (Angstroms)
 Number     Number       Type             X           Y           Z
 ---------------------------------------------------------------------
      1         21           0        0.000000    0.000000    0.086364
      2          1           0        0.000000    0.000000   -1.813636
 ---------------------------------------------------------------------

 SCF Done:  E(ROHF) =  -46.5959507458     A.U. after    9 cycles
 E2 =    -0.4268521942D+00 EUMP2 =    -0.47022802939966D+02
 CCSD(T)
 CCSD(T)= -0.47065286018D+02

 The electronic state is 1-SG.
 Alpha  occ. eigenvalues --   -2.70605  -1.67434  -1.67434  -1.67304  -0.39198
 Alpha  occ. eigenvalues --   -0.23586
 Alpha virt. eigenvalues --    0.01050   0.01050   0.01328   0.01752   0.02584
 Alpha virt. eigenvalues --    0.02584   0.02668   0.02668   0.02714   0.03788
 Alpha virt. eigenvalues --    0.03952   0.03952   0.06622   0.06622   0.07040

 Mulliken charges and spin densities:
               1          2
     1  Sc   0.376097   0.000000
     2  H   -0.376097   0.000000
 Sum of Mulliken charges =  -0.00000   0.00000

 Dipole moment (field-independent basis, Debye):
    X=              0.0000    Y=              0.0000    Z=              1.8533  Tot=              1.8533
 Quadrupole moment (field-independent basis, Debye-Ang):
   XX=            -23.0122   YY=            -23.0122   ZZ=            -27.5483
   XY=              0.0000   XZ=              0.0000   YZ=              0.0000

 P ROCCSD(T)=(maxcyc=150, Full)/Gen 5d 7f SCF=(maxcycles=300) Integral(
 PMP2-0=-47.0228029\MP4SDQ=-47.045061\CCSD=-47.0453095\CCSD(T)=-47.0652
 Normal termination of Gaussian 16 at Wed Feb 14 08:03:12 2018.
