 Gaussian 16, Revision A.03,
 Gaussian 16:  ES64L-G16RevA.03 25-Dec-2016

 ----------------------------------------------------------------------
 #P ROCCSD(T)=(maxcyc=150, Full, SaveAmplitudes, ReadAmplitudes)/Gen 5d
  7f SCF=(maxcycles=300, VShift=400) Integral(NoXCTest) MaxDisk=500GB P
 op=Full Pseudo=Read Guess=Read IOp(5/15=2)
 ----------------------------------------------------------------------

 ---
 MnO
 ---
 Symbolic Z-matrix:
 Charge =  0 Multiplicity = 6

                         Standard orientation:
 ---------------------------------------------------------------------
 Center     Atomic      Atomic             Coordinates (Angstroms)
 Number     Number       Type             X           Y           Z
 ---------------------------------------------------------------------
      1         25           0        0.000000    0.000000    0.436364
      2          8           0        0.000000    0.000000   -1.363636
 ---------------------------------------------------------------------

 SCF Done:  E(ROHF) =  -119.346509929     A.U. after   67 cycles
 E2 =    -0.8924632562D+00 EUMP2 =    -0.12023897318502D+03
 CCSD(T)
 CCSD(T)= -0.12026735870D+03

 The electronic state is 6-SG.
 Alpha  occ. eigenvalues --   -4.17802  -2.76932  -2.76932  -2.76416  -1.10736
 Alpha  occ. eigenvalues --   -0.65910  -0.65910  -0.65594  -0.65594  -0.62458
 Alpha  occ. eigenvalues --   -0.33995  -0.33995  -0.33168
 Alpha virt. eigenvalues --   -0.05077   0.01421   0.01421   0.01681   0.03823
 Alpha virt. eigenvalues --    0.06478   0.06478   0.08195   0.08361   0.08361
 Alpha virt. eigenvalues --    0.09471   0.09471   0.12873   0.14010   0.22792

 Mulliken charges and spin densities:
               1          2
     1  Mn   1.119596   4.930372
     2  O   -1.119596   0.069628
 Sum of Mulliken charges =  -0.00000   5.00000

 Dipole moment (field-independent basis, Debye):
    X=              0.0000    Y=              0.0000    Z=              9.3569  Tot=              9.3569
 Quadrupole moment (field-independent basis, Debye-Ang):
   XX=            -18.9591   YY=            -18.9591   ZZ=            -24.5213
   XY=              0.0000   XZ=              0.0000   YZ=              0.0000

 \\#P ROCCSD(T)=(maxcyc=150, Full, SaveAmplitudes, ReadAmplitudes)/Gen
 4SDQ=-120.2364296\CCSD=-120.2266525\CCSD(T)=-120.2673587\RMSD=9.461e-0
 Normal termination of Gaussian 16 at Sun Mar 18 19:06:19 2018.
