 Gaussian 16, Revision A.03,
 Gaussian 16:  ES64L-G16RevA.03 25-Dec-2016

 ----------------------------------------------------------------------
 #P ROCCSD(T)=(MaxCyc=150, FrzINGC)/Gen SCF=(maxcycle=400) Integral(DKH
 SO, NoXCTest) Pop=Regular MaxDisk=500GB Guess=Read IOp(5/15=2)
 ----------------------------------------------------------------------

 ---
 FeH
 ---
 Symbolic Z-matrix:
 Charge =  0 Multiplicity = 4

                         Standard orientation:
 ---------------------------------------------------------------------
 Center     Atomic      Atomic             Coordinates (Angstroms)
 Number     Number       Type             X           Y           Z
 ---------------------------------------------------------------------
      1         26           0        0.000000    0.000000    0.062963
      2          1           0        0.000000    0.000000   -1.637037
 ---------------------------------------------------------------------

 SCF Done:  E(ROHF) =  -1271.81981190     A.U. after   30 cycles
 E2 =    -0.7490014539D+00 EUMP2 =    -0.12725688133504D+04
 CCSD(T)
 CCSD(T)= -0.12725622361D+04

 Unable to determine electronic state:  an orbital has unidentified symmetry.
 Alpha  occ. eigenvalues -- -263.52995 -32.30368 -27.37254 -27.37254 -27.37122
 Alpha  occ. eigenvalues --   -4.20096  -2.75160  -2.74628  -2.74628  -0.49173
 Alpha  occ. eigenvalues --   -0.49173  -0.48652  -0.43680  -0.43416  -0.31928
 Alpha virt. eigenvalues --   -0.00639   0.02407   0.02407   0.03296   0.04026
 Alpha virt. eigenvalues --    0.08440   0.08440   0.09529   0.10167   0.10208
 Alpha virt. eigenvalues --    0.10396   0.10396   0.10892   0.17127   0.23252

 Mulliken charges and spin densities:
               1          2
     1  Fe   0.429426   2.998242
     2  H   -0.429426   0.001758
 Sum of Mulliken charges =  -0.00000   3.00000

 Dipole moment (field-independent basis, Debye):
    X=              0.0000    Y=              0.0000    Z=              4.7008  Tot=              4.7008
 Quadrupole moment (field-independent basis, Debye-Ang):
   XX=            -15.7455   YY=            -15.7455   ZZ=            -18.4610
   XY=              0.0000   XZ=              0.0000   YZ=              0.0000

 \#P ROCCSD(T)=(MaxCyc=150, FrzINGC)/Gen SCF=(maxcycle=400) Integral(DK
 72.5688134\MP4SDQ=-1272.5461662\CCSD=-1272.5365266\CCSD(T)=-1272.56223
 Normal termination of Gaussian 16 at Wed Mar  7 11:18:17 2018.
