 Gaussian 16, Revision A.03,
 Gaussian 16:  ES64L-G16RevA.03 25-Dec-2016

 ----------------------------------------------------------------------
 #P ROCCSD(T)=(MaxCyc=150, FrzINGC)/Gen SCF=(maxcycle=400, vshift=200)
 Integral(DKHSO, NoXCTest) Pop=Regular MaxDisk=500GB Guess=Read IOp(5/1
 5=2)
 ----------------------------------------------------------------------

 ---
 FeH
 ---
 Symbolic Z-matrix:
 Charge =  0 Multiplicity = 4

                         Standard orientation:
 ---------------------------------------------------------------------
 Center     Atomic      Atomic             Coordinates (Angstroms)
 Number     Number       Type             X           Y           Z
 ---------------------------------------------------------------------
      1         26           0        0.000000    0.000000    0.062963
      2          1           0        0.000000    0.000000   -1.637037
 ---------------------------------------------------------------------

 SCF Done:  E(ROHF) =  -1271.82177676     A.U. after   65 cycles
 E2 =    -0.7972580974D+00 EUMP2 =    -0.12726190348576D+04
 CCSD(T)
 CCSD(T)= -0.12726085662D+04

 Unable to determine electronic state:  an orbital has unidentified symmetry.
 Alpha  occ. eigenvalues -- -263.52989 -32.30343 -27.37226 -27.37226 -27.37094
 Alpha  occ. eigenvalues --   -4.20080  -2.75145  -2.74614  -2.74614  -0.49173
 Alpha  occ. eigenvalues --   -0.49173  -0.48653  -0.43687  -0.43427  -0.31931
 Alpha virt. eigenvalues --   -0.00675   0.02102   0.02102   0.02676   0.03242
 Alpha virt. eigenvalues --    0.05761   0.06181   0.06193   0.06357   0.06357
 Alpha virt. eigenvalues --    0.07377   0.07377   0.08753   0.12851   0.16287

 Mulliken charges and spin densities:
               1          2
     1  Fe   0.294794   2.996389
     2  H   -0.294794   0.003611
 Sum of Mulliken charges =  -0.00000   3.00000

 Dipole moment (field-independent basis, Debye):
    X=              0.0001    Y=             -0.0000    Z=              4.6950  Tot=              4.6950
 Quadrupole moment (field-independent basis, Debye-Ang):
   XX=            -15.7295   YY=            -15.7294   ZZ=            -18.4751
   XY=              0.0000   XZ=              0.0003   YZ=             -0.0002

 \#P ROCCSD(T)=(MaxCyc=150, FrzINGC)/Gen SCF=(maxcycle=400, vshift=200)
 Normal termination of Gaussian 16 at Thu Mar  8 18:49:22 2018.
