 Gaussian 16, Revision A.03,
 Gaussian 16:  ES64L-G16RevA.03 25-Dec-2016

 ----------------------------------------------------------------------
 #P ROCCSD(T)=(maxcyc=150, FrzINGC)/Gen 5d 7f SCF=(maxcycles=300) Integ
 ral(NoXCTest, DKHSO) MaxDisk=500GB Pop=Regular IOp(5/15=2) Guess=Read
 ----------------------------------------------------------------------

 ---
 ScH
 ---
 Symbolic Z-matrix:
 Charge =  0 Multiplicity = 1

                         Standard orientation:
 ---------------------------------------------------------------------
 Center     Atomic      Atomic             Coordinates (Angstroms)
 Number     Number       Type             X           Y           Z
 ---------------------------------------------------------------------
      1         21           0        0.000000    0.000000    0.095455
      2          1           0        0.000000    0.000000   -2.004545
 ---------------------------------------------------------------------

 SCF Done:  E(ROHF) =  -763.819592093     A.U. after   10 cycles
 E2 =    -0.3892563038D+00 EUMP2 =    -0.76420884839648D+03
 CCSD(T)
 CCSD(T)= -0.76425548458D+03

 The electronic state is 1-SG.
 Alpha  occ. eigenvalues -- -166.95219 -19.40902 -15.83239 -15.83239 -15.82416
 Alpha  occ. eigenvalues --   -2.71414  -1.68792  -1.68792  -1.68560  -0.36971
 Alpha  occ. eigenvalues --   -0.24314
 Alpha virt. eigenvalues --    0.00894   0.00894   0.01200   0.02047   0.02806
 Alpha virt. eigenvalues --    0.02806   0.02949   0.02949   0.03020   0.03745
 Alpha virt. eigenvalues --    0.03803   0.03803   0.06400   0.06400   0.07290

 Mulliken charges and spin densities:
               1          2
     1  Sc   0.261544   0.000000
     2  H   -0.261544   0.000000
 Sum of Mulliken charges =  -0.00000   0.00000

 Dipole moment (field-independent basis, Debye):
    X=              0.0000    Y=              0.0000    Z=              2.4811  Tot=              2.4811
 Quadrupole moment (field-independent basis, Debye-Ang):
   XX=            -23.3241   YY=            -23.3241   ZZ=            -29.8786
   XY=             -0.0000   XZ=              0.0000   YZ=              0.0000

  ROCCSD(T)=(maxcyc=150, FrzINGC)/Gen 5d 7f SCF=(maxcycles=300) Integra
 \PMP2-0=-764.2088484\MP4SDQ=-764.2355507\CCSD=-764.2370592\CCSD(T)=-76
 Normal termination of Gaussian 16 at Tue Feb 13 21:12:15 2018.
