 Gaussian 16, Revision A.03,
 Gaussian 16:  ES64L-G16RevA.03 25-Dec-2016

 ----------------------------------------------------------------------
 #P ROCCSD(T)=(MaxCyc=150, Full)/Gen SCF=(maxcycle=400) Pseudo=Read Int
 egral(NoXCTest) Pop=Regular MaxDisk=500GB Guess=Read IOp(5/15=2)
 ----------------------------------------------------------------------

 ---
 NiO
 ---
 Symbolic Z-matrix:
 Charge =  0 Multiplicity = 3

                         Standard orientation:
 ---------------------------------------------------------------------
 Center     Atomic      Atomic             Coordinates (Angstroms)
 Number     Number       Type             X           Y           Z
 ---------------------------------------------------------------------
      1         28           0        0.000000    0.000000    0.400000
      2          8           0        0.000000    0.000000   -1.400000
 ---------------------------------------------------------------------

 SCF Done:  E(ROHF) =  -184.919507984     A.U. after   22 cycles
 E2 =    -0.1159138636D+01 EUMP2 =    -0.18607864661969D+03
 CCSD(T)
 CCSD(T)= -0.18611303006D+03

 The electronic state is 3-SG.
 Alpha  occ. eigenvalues --   -5.05821  -3.50874  -3.42453  -3.42453  -1.12762
 Alpha  occ. eigenvalues --   -0.81456  -0.81456  -0.75719  -0.72566  -0.72566
 Alpha  occ. eigenvalues --   -0.38566  -0.38566  -0.35701
 Alpha virt. eigenvalues --   -0.05814   0.02015   0.02015   0.02052   0.04274
 Alpha virt. eigenvalues --    0.07539   0.07539   0.10596   0.11974   0.11974
 Alpha virt. eigenvalues --    0.13102   0.13102   0.15033   0.15964   0.26047

 Mulliken charges and spin densities:
               1          2
     1  Ni   0.991121   1.955195
     2  O   -0.991121   0.044805
 Sum of Mulliken charges =  -0.00000   2.00000

 Dipole moment (field-independent basis, Debye):
    X=              0.0000    Y=              0.0000    Z=              8.0617  Tot=              8.0617
 Quadrupole moment (field-independent basis, Debye-Ang):
   XX=            -18.7362   YY=            -18.7362   ZZ=            -22.2481
   XY=              0.0000   XZ=              0.0000   YZ=              0.0000

 \\#P ROCCSD(T)=(MaxCyc=150, Full)/Gen SCF=(maxcycle=400) Pseudo=Read I
 P2-0=-186.0786466\MP4SDQ=-186.0514366\CCSD=-186.0464789\CCSD(T)=-186.1
 Normal termination of Gaussian 16 at Mon Mar 26 17:13:48 2018.
