 Gaussian 16, Revision A.03,
 Gaussian 16:  ES64L-G16RevA.03 25-Dec-2016

 ----------------------------------------------------------------------
 #P ROCCSD(T)=(MaxCyc=150, Full)/Gen SCF=(maxcycle=400) Pseudo=Read Int
 egral(NoXCTest) Pop=Regular MaxDisk=500GB Guess=Read IOp(5/15=2)
 ----------------------------------------------------------------------

 ---
 NiO
 ---
 Symbolic Z-matrix:
 Charge =  0 Multiplicity = 3

                         Standard orientation:
 ---------------------------------------------------------------------
 Center     Atomic      Atomic             Coordinates (Angstroms)
 Number     Number       Type             X           Y           Z
 ---------------------------------------------------------------------
      1         28           0        0.000000    0.000000    0.400000
      2          8           0        0.000000    0.000000   -1.400000
 ---------------------------------------------------------------------

 SCF Done:  E(ROHF) =  -184.923091358     A.U. after   15 cycles
 E2 =    -0.1215991354D+01 EUMP2 =    -0.18613908271132D+03
 CCSD(T)
 CCSD(T)= -0.18617175983D+03

 The electronic state is 3-SG.
 Alpha  occ. eigenvalues --   -5.05787  -3.50846  -3.42430  -3.42430  -1.12728
 Alpha  occ. eigenvalues --   -0.81459  -0.81459  -0.75719  -0.72571  -0.72571
 Alpha  occ. eigenvalues --   -0.38581  -0.38581  -0.35688
 Alpha virt. eigenvalues --   -0.05802   0.01689   0.01689   0.01800   0.03862
 Alpha virt. eigenvalues --    0.06552   0.06552   0.07620   0.07920   0.07920
 Alpha virt. eigenvalues --    0.08812   0.08812   0.12432   0.14824   0.21409

 Mulliken charges and spin densities:
               1          2
     1  Ni   0.944168   1.955490
     2  O   -0.944168   0.044510
 Sum of Mulliken charges =  -0.00000   2.00000

 Dipole moment (field-independent basis, Debye):
    X=              0.0000    Y=              0.0000    Z=              8.0453  Tot=              8.0453
 Quadrupole moment (field-independent basis, Debye-Ang):
   XX=            -18.7271   YY=            -18.7271   ZZ=            -22.2322
   XY=              0.0000   XZ=              0.0000   YZ=              0.0000

 \\#P ROCCSD(T)=(MaxCyc=150, Full)/Gen SCF=(maxcycle=400) Pseudo=Read I
 PMP2-0=-186.1390827\MP4SDQ=-186.1060527\CCSD=-186.1023218\CCSD(T)=-186
 Normal termination of Gaussian 16 at Mon Mar 26 19:40:35 2018.
