 Gaussian 16, Revision A.03,
 Gaussian 16:  ES64L-G16RevA.03 25-Dec-2016

 ----------------------------------------------------------------------
 #P ROCCSD(T)=(maxcyc=150, Full, SaveAmplitudes, ReadAmplitudes)/Gen 5d
  7f SCF=(maxcycles=300) Integral(NoXCTest) MaxDisk=500GB Pop=Regular P
 seudo=Read Guess=Read
 ----------------------------------------------------------------------

 ---
 ScO
 ---
 Symbolic Z-matrix:
 Charge =  0 Multiplicity = 2

                         Standard orientation:
 ---------------------------------------------------------------------
 Center     Atomic      Atomic             Coordinates (Angstroms)
 Number     Number       Type             X           Y           Z
 ---------------------------------------------------------------------
      1         21           0        0.000000    0.000000    0.496552
      2          8           0        0.000000    0.000000   -1.303448
 ---------------------------------------------------------------------

 SCF Done:  E(ROHF) =  -61.8552857332     A.U. after   17 cycles
 E2 =    -0.7128738593D+00 EUMP2 =    -0.62568159592502D+02
 CCSD(T)
 CCSD(T)= -0.62596289530D+02

 The electronic state is 2-SG.
 Alpha  occ. eigenvalues --   -2.69024  -1.67541  -1.66397  -1.66397  -1.11969
 Alpha  occ. eigenvalues --   -0.41532  -0.38635  -0.38635  -0.26337
 Alpha virt. eigenvalues --   -0.00434  -0.00434   0.01074   0.01952   0.02660
 Alpha virt. eigenvalues --    0.02660   0.02791   0.02791   0.03224   0.03224
 Alpha virt. eigenvalues --    0.03601   0.04090   0.06084   0.06084   0.09128

 Mulliken charges and spin densities:
               1          2
     1  Sc   1.274666   0.987968
     2  O   -1.274666   0.012032
 Sum of Mulliken charges =  -0.00000   1.00000

 Dipole moment (field-independent basis, Debye):
    X=              0.0000    Y=              0.0000    Z=              5.7537  Tot=              5.7537
 Quadrupole moment (field-independent basis, Debye-Ang):
   XX=            -21.9591   YY=            -21.9591   ZZ=            -33.3848
   XY=              0.0000   XZ=              0.0000   YZ=              0.0000

 \\#P ROCCSD(T)=(maxcyc=150, Full, SaveAmplitudes, ReadAmplitudes)/Gen
 552857\PMP2-0=-62.5681596\CCSD=-62.5510149\CCSD(T)=-62.5962895\RMSD=2.
 Normal termination of Gaussian 16 at Wed Feb 21 06:10:00 2018.
