 Gaussian 16, Revision A.03,
 Gaussian 16:  ES64L-G16RevA.03 25-Dec-2016

 ----------------------------------------------------------------------
 #P ROCCSD(T)=(MaxCyc=150, Full)/Gen SCF=(maxcycle=400) Pseudo=Read Int
 egral(NoXCTest) Pop=Regular MaxDisk=500GB Guess=Read IOp(5/15=2)
 ----------------------------------------------------------------------

 ---
 NiO
 ---
 Symbolic Z-matrix:
 Charge =  0 Multiplicity = 3

                         Standard orientation:
 ---------------------------------------------------------------------
 Center     Atomic      Atomic             Coordinates (Angstroms)
 Number     Number       Type             X           Y           Z
 ---------------------------------------------------------------------
      1         28           0        0.000000    0.000000    0.311111
      2          8           0        0.000000    0.000000   -1.088889
 ---------------------------------------------------------------------

 SCF Done:  E(ROHF) =  -184.647779664     A.U. after   22 cycles
 E2 =    -0.1226122972D+01 EUMP2 =    -0.18587390263562D+03
 CCSD(T)
 CCSD(T)= -0.18586867895D+03

 The electronic state is 3-SG.
 Alpha  occ. eigenvalues --   -5.20313  -3.49747  -3.40020  -3.40020  -1.24593
 Alpha  occ. eigenvalues --   -0.79887  -0.79887  -0.70827  -0.68246  -0.68246
 Alpha  occ. eigenvalues --   -0.41720  -0.41720  -0.37364
 Alpha virt. eigenvalues --   -0.03166   0.02640   0.02640   0.02996   0.04157
 Alpha virt. eigenvalues --    0.09015   0.09015   0.11072   0.12539   0.12539
 Alpha virt. eigenvalues --    0.13204   0.13204   0.15282   0.17003   0.26344

 Mulliken charges and spin densities:
               1          2
     1  Ni   1.082336   1.765526
     2  O   -1.082336   0.234474
 Sum of Mulliken charges =  -0.00000   2.00000

 Dipole moment (field-independent basis, Debye):
    X=              0.0000    Y=              0.0000    Z=              6.4438  Tot=              6.4438
 Quadrupole moment (field-independent basis, Debye-Ang):
   XX=            -18.2632   YY=            -18.2632   ZZ=            -19.4107
   XY=              0.0000   XZ=              0.0000   YZ=              0.0000

 \\#P ROCCSD(T)=(MaxCyc=150, Full)/Gen SCF=(maxcycle=400) Pseudo=Read I
 PMP2-0=-185.8739026\MP4SDQ=-185.8456412\CCSD=-185.8134746\CCSD(T)=-185
 Normal termination of Gaussian 16 at Mon Mar 26 18:16:34 2018.
