 Gaussian 16, Revision A.03,
 Gaussian 16:  ES64L-G16RevA.03 25-Dec-2016

 ----------------------------------------------------------------------
 #P ROCCSD(T)=(MaxCyc=150, Full)/Gen SCF=(maxcycle=400, vshift=200) Pse
 udo=Read Integral(NoXCTest) Pop=Regular MaxDisk=500GB Guess=Read
 ----------------------------------------------------------------------

 ---
 NiO
 ---
 Symbolic Z-matrix:
 Charge =  0 Multiplicity = 3

                         Standard orientation:
 ---------------------------------------------------------------------
 Center     Atomic      Atomic             Coordinates (Angstroms)
 Number     Number       Type             X           Y           Z
 ---------------------------------------------------------------------
      1         28           0        0.000000    0.000000    0.311111
      2          8           0        0.000000    0.000000   -1.088889
 ---------------------------------------------------------------------

 SCF Done:  E(ROHF) =  -183.980000040     A.U. after   28 cycles
 E2 =    -0.1215745215D+01 EUMP2 =    -0.18519574525539D+03
 CCSD(T)
 CCSD(T)= -0.18519132030D+03

 The electronic state is 3-SG.
 Alpha  occ. eigenvalues --   -5.16949  -3.49331  -3.39563  -3.39563  -1.24684
 Alpha  occ. eigenvalues --   -0.79996  -0.79996  -0.70809  -0.68309  -0.68309
 Alpha  occ. eigenvalues --   -0.41876  -0.41876  -0.37246
 Alpha virt. eigenvalues --   -0.03031   0.02645   0.02645   0.03049   0.04149
 Alpha virt. eigenvalues --    0.09036   0.09036   0.11093   0.12540   0.12540
 Alpha virt. eigenvalues --    0.13196   0.13196   0.15256   0.17093   0.26323

 Mulliken charges and spin densities:
               1          2
     1  Ni   1.080761   1.764310
     2  O   -1.080761   0.235690
 Sum of Mulliken charges =  -0.00000   2.00000

 Dipole moment (field-independent basis, Debye):
    X=              0.0000    Y=              0.0000    Z=              6.3820  Tot=              6.3820
 Quadrupole moment (field-independent basis, Debye-Ang):
   XX=            -18.3291   YY=            -18.3291   ZZ=            -19.4884
   XY=              0.0000   XZ=              0.0000   YZ=              0.0000

 \\#P ROCCSD(T)=(MaxCyc=150, Full)/Gen SCF=(maxcycle=400, vshift=200) P
 5.1957453\MP4SDQ=-185.1677393\CCSD=-185.1364045\CCSD(T)=-185.1913203\R
 Normal termination of Gaussian 16 at Fri May 11 03:32:32 2018.
