 Gaussian 16, Revision A.03,
 Gaussian 16:  ES64L-G16RevA.03 25-Dec-2016

 ----------------------------------------------------------------------
 #P ROCCSD(T)=(MaxCyc=150, Full)/Gen SCF=(maxcycle=400, vshift=200) Pse
 udo=Read Integral(NoXCTest) Pop=Regular MaxDisk=500GB Guess=Read
 ----------------------------------------------------------------------

 ---
 NiO
 ---
 Symbolic Z-matrix:
 Charge =  0 Multiplicity = 3

                         Standard orientation:
 ---------------------------------------------------------------------
 Center     Atomic      Atomic             Coordinates (Angstroms)
 Number     Number       Type             X           Y           Z
 ---------------------------------------------------------------------
      1         28           0        0.000000    0.000000    0.311111
      2          8           0        0.000000    0.000000   -1.088889
 ---------------------------------------------------------------------

 SCF Done:  E(ROHF) =  -183.983862430     A.U. after   20 cycles
 E2 =    -0.1273705523D+01 EUMP2 =    -0.18525756795268D+03
 CCSD(T)
 CCSD(T)= -0.18525072454D+03

 The electronic state is 3-SG.
 Alpha  occ. eigenvalues --   -5.16941  -3.49305  -3.39546  -3.39546  -1.24634
 Alpha  occ. eigenvalues --   -0.79993  -0.79993  -0.70801  -0.68309  -0.68309
 Alpha  occ. eigenvalues --   -0.41880  -0.41880  -0.37237
 Alpha virt. eigenvalues --   -0.03025   0.02271   0.02271   0.02730   0.03779
 Alpha virt. eigenvalues --    0.07379   0.07379   0.07697   0.08198   0.08198
 Alpha virt. eigenvalues --    0.09577   0.09577   0.12924   0.15681   0.22608

 Mulliken charges and spin densities:
               1          2
     1  Ni   0.894482   1.770105
     2  O   -0.894482   0.229895
 Sum of Mulliken charges =  -0.00000   2.00000

 Dipole moment (field-independent basis, Debye):
    X=              0.0000    Y=              0.0000    Z=              6.3688  Tot=              6.3688
 Quadrupole moment (field-independent basis, Debye-Ang):
   XX=            -18.3227   YY=            -18.3227   ZZ=            -19.4746
   XY=              0.0000   XZ=              0.0000   YZ=              0.0000

 \\#P ROCCSD(T)=(MaxCyc=150, Full)/Gen SCF=(maxcycle=400, vshift=200) P
 MP2-0=-185.257568\MP4SDQ=-185.2237366\CCSD=-185.1931672\CCSD(T)=-185.2
 Normal termination of Gaussian 16 at Fri May 11 04:45:41 2018.
