 Gaussian 16, Revision A.03,
 Gaussian 16:  ES64L-G16RevA.03 25-Dec-2016

 ----------------------------------------------------------------------
 #P ROCCSD(T)=(MaxCyc=150, Full)/Gen SCF=(maxcycle=400) Pseudo=Read Int
 egral(NoXCTest) Pop=Regular MaxDisk=500GB Guess=Read IOp(5/15=2)
 ----------------------------------------------------------------------

 ---
 NiO
 ---
 Symbolic Z-matrix:
 Charge =  0 Multiplicity = 3

                         Standard orientation:
 ---------------------------------------------------------------------
 Center     Atomic      Atomic             Coordinates (Angstroms)
 Number     Number       Type             X           Y           Z
 ---------------------------------------------------------------------
      1         28           0        0.000000    0.000000    0.311111
      2          8           0        0.000000    0.000000   -1.088889
 ---------------------------------------------------------------------

 SCF Done:  E(ROHF) =  -184.651709386     A.U. after   18 cycles
 E2 =    -0.1284034395D+01 EUMP2 =    -0.18593574378081D+03
 CCSD(T)
 CCSD(T)= -0.18592802798D+03

 The electronic state is 3-SG.
 Alpha  occ. eigenvalues --   -5.20308  -3.49716  -3.39999  -3.39999  -1.24543
 Alpha  occ. eigenvalues --   -0.79885  -0.79885  -0.70819  -0.68246  -0.68246
 Alpha  occ. eigenvalues --   -0.41723  -0.41723  -0.37354
 Alpha virt. eigenvalues --   -0.03160   0.02263   0.02263   0.02681   0.03783
 Alpha virt. eigenvalues --    0.07368   0.07368   0.07689   0.08197   0.08197
 Alpha virt. eigenvalues --    0.09581   0.09581   0.12940   0.15599   0.22628

 Mulliken charges and spin densities:
               1          2
     1  Ni   0.895711   1.771517
     2  O   -0.895711   0.228483
 Sum of Mulliken charges =  -0.00000   2.00000

 Dipole moment (field-independent basis, Debye):
    X=              0.0000    Y=              0.0000    Z=              6.4304  Tot=              6.4304
 Quadrupole moment (field-independent basis, Debye-Ang):
   XX=            -18.2569   YY=            -18.2569   ZZ=            -19.3967
   XY=              0.0000   XZ=              0.0000   YZ=              0.0000

 \\#P ROCCSD(T)=(MaxCyc=150, Full)/Gen SCF=(maxcycle=400) Pseudo=Read I
 PMP2-0=-185.9357438\MP4SDQ=-185.901583\CCSD=-185.8701759\CCSD(T)=-185.
 Normal termination of Gaussian 16 at Mon Mar 26 20:46:11 2018.
