 Gaussian 16, Revision A.03,
 Gaussian 16:  ES64L-G16RevA.03 25-Dec-2016

 ----------------------------------------------------------------------
 #P ROCCSD(T)=(maxcyc=150, Full, ReadAmplitudes)/Gen 5d 7f SCF=(maxcycl
 es=300) Integral(NoXCTest) MaxDisk=500GB Pop=Regular Pseudo=Read Guess
 =Read
 ----------------------------------------------------------------------

 ---
 CrH
 ---
 Symbolic Z-matrix:
 Charge =  0 Multiplicity = 6

                         Standard orientation:
 ---------------------------------------------------------------------
 Center     Atomic      Atomic             Coordinates (Angstroms)
 Number     Number       Type             X           Y           Z
 ---------------------------------------------------------------------
      1         24           0        0.000000    0.000000    0.076000
      2          1           0        0.000000    0.000000   -1.824000
 ---------------------------------------------------------------------

 SCF Done:  E(ROHF) =  -86.3742966050     A.U. after   22 cycles
 E2 =    -0.5489012420D+00 EUMP2 =    -0.86923197847046D+02
 CCSD(T)
 CCSD(T)= -0.86963749956D+02

 The electronic state is 6-SG.
 Alpha  occ. eigenvalues --   -3.87208  -2.59105  -2.59105  -2.54336  -0.52110
 Alpha  occ. eigenvalues --   -0.52110  -0.49068  -0.49068  -0.39549  -0.27404
 Alpha virt. eigenvalues --    0.01018   0.01018   0.01788   0.02337   0.04339
 Alpha virt. eigenvalues --    0.04537   0.04537   0.04921   0.04921   0.05220
 Alpha virt. eigenvalues --    0.05220   0.06453   0.08499   0.11008   0.15354

 Mulliken charges and spin densities:
               1          2
     1  Cr   0.336178   4.969002
     2  H   -0.336178   0.030998
 Sum of Mulliken charges =  -0.00000   5.00000

 Dipole moment (field-independent basis, Debye):
    X=              0.0000    Y=              0.0000    Z=              2.5565  Tot=              2.5565
 Quadrupole moment (field-independent basis, Debye-Ang):
   XX=            -17.3486   YY=            -17.3486   ZZ=            -25.9083
   XY=              0.0000   XZ=              0.0000   YZ=              0.0000

 \\#P ROCCSD(T)=(maxcyc=150, Full, ReadAmplitudes)/Gen 5d 7f SCF=(maxcy
 6.9231978\CCSD=-86.946323\CCSD(T)=-86.96375\RMSD=4.922e-09\PG=C*V [C*(
 Normal termination of Gaussian 16 at Mon Feb 26 17:57:53 2018.
