 Gaussian 16, Revision A.03,
 Gaussian 16:  ES64L-G16RevA.03 25-Dec-2016

 ----------------------------------------------------------------------
 #P ROCCSD(T)=(maxcyc=150, Full, SaveAmplitudes, ReadAmplitudes)/Gen 5d
  7f SCF=(maxcycles=300) Integral(NoXCTest) MaxDisk=500GB Pop=Regular P
 seudo=Read Guess=Read IOp(5/15=2)
 ----------------------------------------------------------------------

 ---
 MnO
 ---
 Symbolic Z-matrix:
 Charge =  0 Multiplicity = 6

                         Standard orientation:
 ---------------------------------------------------------------------
 Center     Atomic      Atomic             Coordinates (Angstroms)
 Number     Number       Type             X           Y           Z
 ---------------------------------------------------------------------
      1         25           0        0.000000    0.000000    0.412121
      2          8           0        0.000000    0.000000   -1.287879
 ---------------------------------------------------------------------

 SCF Done:  E(ROHF) =  -119.374194062     A.U. after   33 cycles
 E2 =    -0.9133038074D+00 EUMP2 =    -0.12028749786962D+03
 CCSD(T)
 CCSD(T)= -0.12031876951D+03

 The electronic state is 6-SG.
 Alpha  occ. eigenvalues --   -4.08964  -2.75239  -2.75239  -2.74744  -1.10134
 Alpha  occ. eigenvalues --   -0.64182  -0.64182  -0.63458  -0.63458  -0.59576
 Alpha  occ. eigenvalues --   -0.33981  -0.33708  -0.33708
 Alpha virt. eigenvalues --   -0.04815   0.01558   0.01558   0.01783   0.03846
 Alpha virt. eigenvalues --    0.06654   0.06654   0.08192   0.08439   0.08439
 Alpha virt. eigenvalues --    0.09604   0.09604   0.13111   0.14053   0.22833

 Mulliken charges and spin densities:
               1          2
     1  Mn   1.159321   4.901736
     2  O   -1.159321   0.098264
 Sum of Mulliken charges =  -0.00000   5.00000

 Dipole moment (field-independent basis, Debye):
    X=              0.0000    Y=              0.0000    Z=              9.1964  Tot=              9.1964
 Quadrupole moment (field-independent basis, Debye-Ang):
   XX=            -18.7669   YY=            -18.7669   ZZ=            -23.6972
   XY=              0.0000   XZ=              0.0000   YZ=              0.0000

 \\#P ROCCSD(T)=(maxcyc=150, Full, SaveAmplitudes, ReadAmplitudes)/Gen
 .2858511\CCSD=-120.2769679\CCSD(T)=-120.3187695\RMSD=9.608e-09\PG=C*V
 Normal termination of Gaussian 16 at Wed Mar 14 03:06:34 2018.
