 Gaussian 16, Revision A.03,
 Gaussian 16:  ES64L-G16RevA.03 25-Dec-2016

 ----------------------------------------------------------------------
 #P ROCCSD(T)=(MaxCyc=150, Full)/Gen SCF=(maxcycle=400) Pseudo=Read Int
 egral(NoXCTest) Pop=Regular MaxDisk=500GB Guess=Read IOp(5/15=2)
 ----------------------------------------------------------------------

 --
 Co
 --
 Symbolic Z-matrix:
 Charge =  0 Multiplicity = 4

                         Standard orientation:
 ---------------------------------------------------------------------
 Center     Atomic      Atomic             Coordinates (Angstroms)
 Number     Number       Type             X           Y           Z
 ---------------------------------------------------------------------
      1         27           0        0.000000    0.000000    0.000000
 ---------------------------------------------------------------------

 SCF Done:  E(ROHF) =  -144.331238297     A.U. after   19 cycles
 E2 =    -0.7940503432D+00 EUMP2 =    -0.14512528864019D+03
 CCSD(T)
 CCSD(T)= -0.14512687381D+03

 Unable to determine electronic state:  an orbital has unidentified symmetry.
 Alpha  occ. eigenvalues --   -4.80411  -3.22001  -3.22001  -3.22001  -0.72000
 Alpha  occ. eigenvalues --   -0.72000  -0.72000  -0.66996  -0.66996  -0.28179
 Alpha virt. eigenvalues --    0.02090   0.02090   0.02090   0.02337   0.06667
 Alpha virt. eigenvalues --    0.06667   0.06667   0.06700   0.06700   0.06700
 Alpha virt. eigenvalues --    0.06706   0.06706   0.11541   0.20955   0.20955

 Mulliken charges and spin densities:
               1          2
     1  Co   0.000000   3.000000
 Sum of Mulliken charges =   0.00000   3.00000

 Dipole moment (field-independent basis, Debye):
    X=              0.0000    Y=              0.0000    Z=              0.0000  Tot=              0.0000
 Quadrupole moment (field-independent basis, Debye-Ang):
   XX=            -17.2311   YY=            -17.2311   ZZ=            -17.2311
   XY=              0.0000   XZ=              0.0000   YZ=             -0.0000

 1\1\GINC-C473-103\SP\ROCCSD(T)-Full\Gen\Co1(4)\GWANG18\03-May-2018\0\\
 #P ROCCSD(T)=(MaxCyc=150, Full)/Gen SCF=(maxcycle=400) Pseudo=Read Int
 egral(NoXCTest) Pop=Regular MaxDisk=500GB Guess=Read IOp(5/15=2)\\Co\\
 0,4\Co,0,0.,0.,0.\\Version=ES64L-G16RevA.03\HF=-144.3312383\MP2=-145.1
 252886\MP3=-145.0903901\PUHF=-144.3312383\PMP2-0=-145.1252886\MP4SDQ=-
 145.1078547\CCSD=-145.1032942\CCSD(T)=-145.1268738\RMSD=8.175e-09\PG=O
 H [O(Co1)]\\@

 Normal termination of Gaussian 16 at Thu May  3 16:01:32 2018.
