 Gaussian 16, Revision A.03,
 Gaussian 16:  ES64L-G16RevA.03 25-Dec-2016

 ----------------------------------------------------------------------
 #P ROCCSD(T)=(MaxCyc=150, Full)/Gen SCF=(maxcycle=400) Pseudo=Read Int
 egral(NoXCTest) Pop=Regular MaxDisk=500GB Guess=Read IOp(5/15=2)
 ----------------------------------------------------------------------

 --
 Co
 --
 Symbolic Z-matrix:
 Charge =  0 Multiplicity = 4

                         Standard orientation:
 ---------------------------------------------------------------------
 Center     Atomic      Atomic             Coordinates (Angstroms)
 Number     Number       Type             X           Y           Z
 ---------------------------------------------------------------------
      1         27           0        0.000000    0.000000    0.000000
 ---------------------------------------------------------------------

 SCF Done:  E(ROHF) =  -144.330904994     A.U. after   16 cycles
 E2 =    -0.7755397929D+00 EUMP2 =    -0.14510644478668D+03
 CCSD(T)
 CCSD(T)= -0.14511006744D+03

 Unable to determine electronic state:  an orbital has unidentified symmetry.
 Alpha  occ. eigenvalues --   -4.80409  -3.22004  -3.22004  -3.22004  -0.72001
 Alpha  occ. eigenvalues --   -0.72001  -0.72001  -0.66990  -0.66990  -0.28179
 Alpha virt. eigenvalues --    0.02133   0.02133   0.02133   0.02851   0.06928
 Alpha virt. eigenvalues --    0.06928   0.06928   0.07398   0.07398   0.07398
 Alpha virt. eigenvalues --    0.07407   0.07407   0.15205   0.23117   0.23117

 Mulliken charges and spin densities:
               1          2
     1  Co   0.000000   3.000000
 Sum of Mulliken charges =   0.00000   3.00000

 Dipole moment (field-independent basis, Debye):
    X=              0.0000    Y=              0.0000    Z=              0.0000  Tot=              0.0000
 Quadrupole moment (field-independent basis, Debye-Ang):
   XX=            -17.2320   YY=            -17.2320   ZZ=            -17.2320
   XY=             -0.0000   XZ=              0.0000   YZ=             -0.0000

 1\1\GINC-C473-103\SP\ROCCSD(T)-Full\Gen\Co1(4)\GWANG18\03-May-2018\0\\
 #P ROCCSD(T)=(MaxCyc=150, Full)/Gen SCF=(maxcycle=400) Pseudo=Read Int
 egral(NoXCTest) Pop=Regular MaxDisk=500GB Guess=Read IOp(5/15=2)\\Co\\
 0,4\Co,0,0.,0.,0.\\Version=ES64L-G16RevA.03\HF=-144.330905\MP2=-145.10
 64448\MP3=-145.0737207\PUHF=-144.330905\PMP2-0=-145.1064448\MP4SDQ=-14
 5.0916792\CCSD=-145.0869864\CCSD(T)=-145.1100674\RMSD=1.231e-09\PG=OH
 [O(Co1)]\\@

 Normal termination of Gaussian 16 at Thu May  3 15:03:51 2018.
