 Gaussian 16, Revision A.03,
 Gaussian 16:  ES64L-G16RevA.03 25-Dec-2016

 ----------------------------------------------------------------------
 #P ROCCSD(T)=(MaxCyc=150, Full)/Gen SCF=(maxcycle=400) Pseudo=Read Int
 egral(NoXCTest) Pop=Regular MaxDisk=500GB Guess=Read IOp(5/15=2)
 ----------------------------------------------------------------------

 --
 Co
 --
 Symbolic Z-matrix:
 Charge =  0 Multiplicity = 4

                         Standard orientation:
 ---------------------------------------------------------------------
 Center     Atomic      Atomic             Coordinates (Angstroms)
 Number     Number       Type             X           Y           Z
 ---------------------------------------------------------------------
      1         27           0        0.000000    0.000000    0.000000
 ---------------------------------------------------------------------

 SCF Done:  E(ROHF) =  -144.329426887     A.U. after   16 cycles
 E2 =    -0.7376841364D+00 EUMP2 =    -0.14506711102295D+03
 CCSD(T)
 CCSD(T)= -0.14507199569D+03

 Unable to determine electronic state:  an orbital has unidentified symmetry.
 Alpha  occ. eigenvalues --   -4.80425  -3.22022  -3.22022  -3.22022  -0.71998
 Alpha  occ. eigenvalues --   -0.71998  -0.71998  -0.66984  -0.66984  -0.28183
 Alpha virt. eigenvalues --    0.02258   0.02258   0.02258   0.02966   0.07755
 Alpha virt. eigenvalues --    0.07755   0.07755   0.11266   0.11266   0.11266
 Alpha virt. eigenvalues --    0.11293   0.11293   0.15722   0.27968   0.27968

 Mulliken charges and spin densities:
               1          2
     1  Co   0.000000   3.000000
 Sum of Mulliken charges =   0.00000   3.00000

 Dipole moment (field-independent basis, Debye):
    X=              0.0000    Y=              0.0000    Z=              0.0000  Tot=              0.0000
 Quadrupole moment (field-independent basis, Debye-Ang):
   XX=            -17.2330   YY=            -17.2330   ZZ=            -17.2330
   XY=              0.0000   XZ=             -0.0000   YZ=             -0.0000

 1\1\GINC-C473-103\SP\ROCCSD(T)-Full\Gen\Co1(4)\GWANG18\03-May-2018\0\\
 #P ROCCSD(T)=(MaxCyc=150, Full)/Gen SCF=(maxcycle=400) Pseudo=Read Int
 egral(NoXCTest) Pop=Regular MaxDisk=500GB Guess=Read IOp(5/15=2)\\Co\\
 0,4\Co,0,0.,0.,0.\\Version=ES64L-G16RevA.03\HF=-144.3294269\MP2=-145.0
 67111\MP3=-145.0360144\PUHF=-144.3294269\PMP2-0=-145.067111\MP4SDQ=-14
 5.0550451\CCSD=-145.0501587\CCSD(T)=-145.0719957\RMSD=7.544e-09\PG=OH
 [O(Co1)]\\@

 Normal termination of Gaussian 16 at Thu May  3 14:40:56 2018.
