 Gaussian 16, Revision A.03,
 Gaussian 16:  ES64L-G16RevA.03 25-Dec-2016

 ----------------------------------------------------------------------
 #P ROCCSD(T)=(maxcyc=150, Full)/Gen 5d 7f SCF=(maxcycles=300) MaxDisk=
 500GB Pop=Regular Pseudo=Read Guess=Read
 ----------------------------------------------------------------------

 --
 Sc
 --
 Symbolic Z-matrix:
 Charge =  0 Multiplicity = 2

                         Standard orientation:
 ---------------------------------------------------------------------
 Center     Atomic      Atomic             Coordinates (Angstroms)
 Number     Number       Type             X           Y           Z
 ---------------------------------------------------------------------
      1         21           0        0.000000    0.000000    0.000000
 ---------------------------------------------------------------------

 SCF Done:  E(ROHF) =  -46.2570209956     A.U. after   14 cycles
 E2 =    -0.3926821267D+00 EUMP2 =    -0.46649703122376D+02
 CCSD(T)
 CCSD(T)= -0.46682799152D+02

 Unable to determine electronic state:  an orbital has unidentified symmetry.
 Alpha  occ. eigenvalues --   -2.66402  -1.62802  -1.62802  -1.58953  -0.34384
 Alpha  occ. eigenvalues --   -0.21672
 Alpha virt. eigenvalues --    0.01205   0.01293   0.01293   0.01994   0.02627
 Alpha virt. eigenvalues --    0.02629   0.02629   0.02636   0.02651   0.04297
 Alpha virt. eigenvalues --    0.04418   0.04418   0.07445   0.07519   0.07519

 Mulliken charges and spin densities:
               1          2
     1  Sc  -0.000000   1.000000
 Sum of Mulliken charges =  -0.00000   1.00000

 Dipole moment (field-independent basis, Debye):
    X=              0.0000    Y=              0.0000    Z=              0.0000  Tot=              0.0000
 Quadrupole moment (field-independent basis, Debye-Ang):
   XX=            -23.1616   YY=            -23.1616   ZZ=            -22.8506
   XY=             -0.0000   XZ=              0.0000   YZ=             -0.0000

 1\1\GINC-C455-031\SP\ROCCSD(T)-Full\Gen\Sc1(2)\AANNABE\16-Feb-2018\0\\
 #P ROCCSD(T)=(maxcyc=150, Full)/Gen 5d 7f SCF=(maxcycles=300) MaxDisk=
 500GB Pop=Regular Pseudo=Read Guess=Read\\Sc\\0,2\Sc,0,0.,0.,0.\\Versi
 on=ES64L-G16RevA.03\HF=-46.257021\MP2=-46.6497031\MP3=-46.6674071\PUHF
 =-46.257021\PMP2-0=-46.6497031\MP4SDQ=-46.6667489\CCSD=-46.6670093\CCS
 D(T)=-46.6827992\RMSD=4.797e-09\PG=OH [O(Sc1)]\\@

 Normal termination of Gaussian 16 at Fri Feb 16 12:40:09 2018.
