 Gaussian 16, Revision A.03,
 Gaussian 16:  ES64L-G16RevA.03 25-Dec-2016

 ----------------------------------------------------------------------
 #P ROCCSD(T)=(maxcyc=150, Full)/Gen 5d 7f SCF=(maxcycles=300, NoVarAcc
 , VShift=400) MaxDisk=100GB Pop=Regular Pseudo=Read Guess=Read IOp(5/1
 5=2)
 ----------------------------------------------------------------------

 --
 Cr
 --
 Symbolic Z-matrix:
 Charge =  0 Multiplicity = 7

                         Standard orientation:
 ---------------------------------------------------------------------
 Center     Atomic      Atomic             Coordinates (Angstroms)
 Number     Number       Type             X           Y           Z
 ---------------------------------------------------------------------
      1         24           0        0.000000    0.000000    0.000000
 ---------------------------------------------------------------------

 SCF Done:  E(ROHF) =  -86.4814937258     A.U. after   45 cycles
 E2 =    -0.5558816592D+00 EUMP2 =    -0.87037375385068D+02
 CCSD(T)
 CCSD(T)= -0.87047461927D+02

 The electronic state is 7-A1G.
 Alpha  occ. eigenvalues --   -3.59186  -2.29268  -2.29268  -2.29268  -0.37403
 Alpha  occ. eigenvalues --   -0.37403  -0.37403  -0.37403  -0.37403  -0.22530
 Alpha virt. eigenvalues --    0.01741   0.01741   0.01741   0.02418   0.05522
 Alpha virt. eigenvalues --    0.05522   0.05522   0.05522   0.05522   0.06003
 Alpha virt. eigenvalues --    0.06003   0.06003   0.12725   0.17932   0.17932

 Mulliken charges and spin densities:
               1          2
     1  Cr  -0.000000   6.000000
 Sum of Mulliken charges =  -0.00000   6.00000

 Dipole moment (field-independent basis, Debye):
    X=              0.0000    Y=              0.0000    Z=              0.0000  Tot=              0.0000
 Quadrupole moment (field-independent basis, Debye-Ang):
   XX=            -16.2827   YY=            -16.2827   ZZ=            -16.2827
   XY=              0.0000   XZ=             -0.0000   YZ=             -0.0000

 1\1\GINC-C506-074\SP\ROCCSD(T)-Full\Gen\Cr1(7)\AANNABE\05-Apr-2018\0\\
 #P ROCCSD(T)=(maxcyc=150, Full)/Gen 5d 7f SCF=(maxcycles=300, NoVarAcc
 , VShift=400) MaxDisk=100GB Pop=Regular Pseudo=Read Guess=Read IOp(5/1
 5=2)\\Cr\\0,7\Cr,0,0.,0.,0.\\Version=ES64L-G16RevA.03\State=7-A1G\HF=-
 86.4814937\MP2=-87.0373754\MP3=-87.027642\PUHF=-86.4814937\PMP2-0=-87.
 0373754\MP4SDQ=-87.0314478\CCSD=-87.030313\CCSD(T)=-87.0474619\RMSD=9.
 277e-09\PG=OH [O(Cr1)]\\@

 Normal termination of Gaussian 16 at Thu Apr  5 15:21:40 2018.
