 Gaussian 16, Revision A.03,
 Gaussian 16:  ES64L-G16RevA.03 25-Dec-2016

 ----------------------------------------------------------------------
 #P ROCCSD(T)=(MaxCyc=150, Full)/Gen SCF=(maxcycle=400) Pseudo=Read Int
 egral(NoXCTest) Pop=Regular MaxDisk=500GB Guess=Read IOp(5/15=2)
 ----------------------------------------------------------------------

 ---
 ZnO
 ---
 Symbolic Z-matrix:
 Charge =  0 Multiplicity = 1

                         Standard orientation:
 ---------------------------------------------------------------------
 Center     Atomic      Atomic             Coordinates (Angstroms)
 Number     Number       Type             X           Y           Z
 ---------------------------------------------------------------------
      1         30           0        0.000000    0.000000    0.442105
      2          8           0        0.000000    0.000000   -1.657895
 ---------------------------------------------------------------------

 SCF Done:  E(ROHF) =  -241.647087974     A.U. after   11 cycles
 E2 =    -0.1363927898D+01 EUMP2 =    -0.24301101587148D+03
 CCSD(T)
 CCSD(T)= -0.24299034569D+03

 The electronic state is 1-SG.
 Alpha  occ. eigenvalues --   -5.59212  -3.88593  -3.88593  -3.88539  -1.16236
 Alpha  occ. eigenvalues --   -0.80825  -0.80825  -0.80811  -0.80811  -0.80276
 Alpha  occ. eigenvalues --   -0.46098  -0.46098  -0.34199
 Alpha virt. eigenvalues --   -0.03673   0.02251   0.02251   0.02651   0.03954
 Alpha virt. eigenvalues --    0.07249   0.07249   0.11481   0.16273   0.16753
 Alpha virt. eigenvalues --    0.17984   0.17984   0.18975   0.18975   0.23294

 Mulliken charges and spin densities:
               1          2
     1  Zn   0.561120   0.000000
     2  O   -0.561120   0.000000
 Sum of Mulliken charges =  -0.00000   0.00000

 Dipole moment (field-independent basis, Debye):
    X=              0.0000    Y=              0.0000    Z=              5.0305  Tot=              5.0305
 Quadrupole moment (field-independent basis, Debye-Ang):
   XX=            -18.9096   YY=            -18.9096   ZZ=            -21.7707
   XY=              0.0000   XZ=              0.0000   YZ=              0.0000

 P ROCCSD(T)=(MaxCyc=150, Full)/Gen SCF=(maxcycle=400) Pseudo=Read Inte
 0=-243.0110159\MP4SDQ=-242.9670925\CCSD=-242.9391634\CCSD(T)=-242.9903
 Normal termination of Gaussian 16 at Fri May  4 14:45:52 2018.
