 Gaussian 16, Revision A.03,
 Gaussian 16:  ES64L-G16RevA.03 25-Dec-2016

 ----------------------------------------------------------------------
 #P ROCCSD(T)=(MaxCyc=150, Full)/Gen SCF=(maxcycle=400) Pseudo=Read Int
 egral(NoXCTest) Pop=Regular MaxDisk=500GB Guess=Read IOp(5/15=2)
 ----------------------------------------------------------------------

 ---
 ZnO
 ---
 Symbolic Z-matrix:
 Charge =  0 Multiplicity = 1

                         Standard orientation:
 ---------------------------------------------------------------------
 Center     Atomic      Atomic             Coordinates (Angstroms)
 Number     Number       Type             X           Y           Z
 ---------------------------------------------------------------------
      1         30           0        0.000000    0.000000    0.442105
      2          8           0        0.000000    0.000000   -1.657895
 ---------------------------------------------------------------------

 SCF Done:  E(ROHF) =  -241.643915396     A.U. after   12 cycles
 E2 =    -0.1297370151D+01 EUMP2 =    -0.24294128554667D+03
 CCSD(T)
 CCSD(T)= -0.24292298546D+03

 The electronic state is 1-SG.
 Alpha  occ. eigenvalues --   -5.59255  -3.88622  -3.88622  -3.88571  -1.16273
 Alpha  occ. eigenvalues --   -0.80837  -0.80837  -0.80820  -0.80820  -0.80291
 Alpha  occ. eigenvalues --   -0.46081  -0.46081  -0.34219
 Alpha virt. eigenvalues --   -0.03689   0.02432   0.02432   0.02900   0.04357
 Alpha virt. eigenvalues --    0.08249   0.08249   0.12943   0.17288   0.20805
 Alpha virt. eigenvalues --    0.21918   0.21918   0.24898   0.24898   0.29970

 Mulliken charges and spin densities:
               1          2
     1  Zn   0.580433   0.000000
     2  O   -0.580433   0.000000
 Sum of Mulliken charges =  -0.00000   0.00000

 Dipole moment (field-independent basis, Debye):
    X=              0.0000    Y=              0.0000    Z=              5.0430  Tot=              5.0430
 Quadrupole moment (field-independent basis, Debye-Ang):
   XX=            -18.9212   YY=            -18.9212   ZZ=            -21.7667
   XY=              0.0000   XZ=              0.0000   YZ=              0.0000

 P ROCCSD(T)=(MaxCyc=150, Full)/Gen SCF=(maxcycle=400) Pseudo=Read Inte
 -0=-242.9412855\MP4SDQ=-242.9023628\CCSD=-242.8743011\CCSD(T)=-242.922
 Normal termination of Gaussian 16 at Fri May  4 12:24:48 2018.
