 Gaussian 16, Revision A.03,
 Gaussian 16:  ES64L-G16RevA.03 25-Dec-2016

 ----------------------------------------------------------------------
 #P ROCCSD(T)=(MaxCyc=150, Full)/Gen SCF=(maxcycle=400) Pseudo=Read Int
 egral(NoXCTest) Pop=Regular MaxDisk=500GB Guess=Read IOp(5/15=2)
 ----------------------------------------------------------------------

 ---
 CuO
 ---
 Symbolic Z-matrix:
 Charge =  0 Multiplicity = 2

                         Standard orientation:
 ---------------------------------------------------------------------
 Center     Atomic      Atomic             Coordinates (Angstroms)
 Number     Number       Type             X           Y           Z
 ---------------------------------------------------------------------
      1         29           0        0.000000    0.000000    0.389189
      2          8           0        0.000000    0.000000   -1.410811
 ---------------------------------------------------------------------

 SCF Done:  E(ROHF) =  -211.962736277     A.U. after   20 cycles
 E2 =    -0.1366540530D+01 EUMP2 =    -0.21332927680666D+03
 CCSD(T)
 CCSD(T)= -0.21326298213D+03

 Unable to determine electronic state:  an orbital has unidentified symmetry.
 Alpha  occ. eigenvalues --   -4.95909  -3.37095  -3.36888  -3.36696  -1.20718
 Alpha  occ. eigenvalues --   -0.56306  -0.53593  -0.53201  -0.51804  -0.51803
 Alpha  occ. eigenvalues --   -0.47958  -0.41509  -0.40624
 Alpha virt. eigenvalues --   -0.01450   0.02487   0.02616   0.03458   0.04392
 Alpha virt. eigenvalues --    0.08719   0.08962   0.11567   0.13274   0.13280
 Alpha virt. eigenvalues --    0.14492   0.14575   0.15045   0.18916   0.21305

 Mulliken charges and spin densities:
               1          2
     1  Cu   0.756018   0.014475
     2  O   -0.756018   0.985525
 Sum of Mulliken charges =  -0.00000   1.00000

 Dipole moment (field-independent basis, Debye):
    X=              0.0000    Y=              0.0000    Z=              5.9951  Tot=              5.9951
 Quadrupole moment (field-independent basis, Debye-Ang):
   XX=            -15.4145   YY=            -16.9688   ZZ=            -20.8584
   XY=              0.0000   XZ=              0.0000   YZ=              0.0000

 \\#P ROCCSD(T)=(MaxCyc=150, Full)/Gen SCF=(maxcycle=400) Pseudo=Read I
 .3292768\MP4SDQ=-213.288243\CCSD=-213.2151134\CCSD(T)=-213.2629821\RMS
 Normal termination of Gaussian 16 at Mon Mar 26 02:27:18 2018.
