 Gaussian 16, Revision A.03,
 Gaussian 16:  ES64L-G16RevA.03 25-Dec-2016

 ----------------------------------------------------------------------
 #P ROCCSD(T)=(MaxCyc=150, Full)/Gen SCF=(maxcycle=400) Pseudo=Read Int
 egral(NoXCTest) Pop=Regular MaxDisk=500GB Guess=Read IOp(5/15=2)
 ----------------------------------------------------------------------

 ---
 CuO
 ---
 Symbolic Z-matrix:
 Charge =  0 Multiplicity = 2

                         Standard orientation:
 ---------------------------------------------------------------------
 Center     Atomic      Atomic             Coordinates (Angstroms)
 Number     Number       Type             X           Y           Z
 ---------------------------------------------------------------------
      1         29           0        0.000000    0.000000    0.389189
      2          8           0        0.000000    0.000000   -1.410811
 ---------------------------------------------------------------------

 SCF Done:  E(ROHF) =  -211.958186532     A.U. after   16 cycles
 E2 =    -0.1302865421D+01 EUMP2 =    -0.21326105195361D+03
 CCSD(T)
 CCSD(T)= -0.21319771573D+03

 Unable to determine electronic state:  an orbital has unidentified symmetry.
 Alpha  occ. eigenvalues --   -4.95957  -3.37142  -3.36930  -3.36736  -1.20762
 Alpha  occ. eigenvalues --   -0.56304  -0.53595  -0.53216  -0.51805  -0.51804
 Alpha  occ. eigenvalues --   -0.47957  -0.41506  -0.40633
 Alpha virt. eigenvalues --   -0.01451   0.02786   0.02945   0.03925   0.04610
 Alpha virt. eigenvalues --    0.10175   0.10489   0.13546   0.19368   0.19404
 Alpha virt. eigenvalues --    0.19473   0.20507   0.21616   0.22700   0.26000

 Mulliken charges and spin densities:
               1          2
     1  Cu   0.812670   0.014473
     2  O   -0.812670   0.985527
 Sum of Mulliken charges =  -0.00000   1.00000

 Dipole moment (field-independent basis, Debye):
    X=              0.0000    Y=              0.0000    Z=              6.0104  Tot=              6.0104
 Quadrupole moment (field-independent basis, Debye-Ang):
   XX=            -15.4220   YY=            -16.9939   ZZ=            -20.8454
   XY=              0.0000   XZ=              0.0000   YZ=              0.0000

 \\#P ROCCSD(T)=(MaxCyc=150, Full)/Gen SCF=(maxcycle=400) Pseudo=Read I
 261052\MP4SDQ=-213.2261067\CCSD=-213.1523833\CCSD(T)=-213.1977157\RMSD
 Normal termination of Gaussian 16 at Sun Mar 25 23:51:47 2018.
