 Gaussian 16, Revision A.03,
 Gaussian 16:  ES64L-G16RevA.03 25-Dec-2016

 ----------------------------------------------------------------------
 #P ROCCSD(T)=(MaxCyc=150, Full)/Gen SCF=(maxcycle=400) Integral(DKHSO,
  NoXCTest) Pop=Regular MaxDisk=500GB Guess=Read IOp(5/15=2)
 ----------------------------------------------------------------------

 --
 Co
 --
 Symbolic Z-matrix:
 Charge =  0 Multiplicity = 4

                         Standard orientation:
 ---------------------------------------------------------------------
 Center     Atomic      Atomic             Coordinates (Angstroms)
 Number     Number       Type             X           Y           Z
 ---------------------------------------------------------------------
      1         27           0        0.000000    0.000000    0.000000
 ---------------------------------------------------------------------

 SCF Done:  E(ROHF) =  -1391.88661025     A.U. after   15 cycles
 E2 =    -0.1232381347D+01 EUMP2 =    -0.13931189915925D+04
 CCSD(T)
 CCSD(T)= -0.13931037849D+04

 Unable to determine electronic state:  an orbital has unidentified symmetry.
 Alpha  occ. eigenvalues -- -285.78267 -35.51315 -30.27922 -30.27922 -30.27922
 Alpha  occ. eigenvalues --   -4.75416  -3.18749  -3.18749  -3.18749  -0.71743
 Alpha  occ. eigenvalues --   -0.71743  -0.71743  -0.66693  -0.66693  -0.28171
 Alpha virt. eigenvalues --    0.02091   0.02091   0.02091   0.02337   0.06666
 Alpha virt. eigenvalues --    0.06666   0.06666   0.06700   0.06700   0.06700
 Alpha virt. eigenvalues --    0.06707   0.06707   0.11542   0.20959   0.20959

 Mulliken charges and spin densities:
               1          2
     1  Co  -0.000000   3.000000
 Sum of Mulliken charges =  -0.00000   3.00000

 Dipole moment (field-independent basis, Debye):
    X=             -0.0000    Y=              0.0000    Z=             -0.0000  Tot=              0.0000
 Quadrupole moment (field-independent basis, Debye-Ang):
   XX=            -17.4314   YY=            -17.4314   ZZ=            -17.4314
   XY=              0.0000   XZ=              0.0000   YZ=             -0.0000

 1\1\GINC-C504-014\SP\ROCCSD(T)-Full\Gen\Co1(4)\GWANG18\04-May-2018\0\\
 #P ROCCSD(T)=(MaxCyc=150, Full)/Gen SCF=(maxcycle=400) Integral(DKHSO,
  NoXCTest) Pop=Regular MaxDisk=500GB Guess=Read IOp(5/15=2)\\Co\\0,4\C
 o,0,0.,0.,0.\\Version=ES64L-G16RevA.03\HF=-1391.8866102\MP2=-1393.1189
 916\MP3=-1393.0621268\PUHF=-1391.8866102\PMP2-0=-1393.1189916\MP4SDQ=-
 1393.0852559\CCSD=-1393.0787253\CCSD(T)=-1393.1037849\RMSD=9.584e-10\P
 G=OH [O(Co1)]\\@

 Normal termination of Gaussian 16 at Fri May  4 18:55:51 2018.
