 Gaussian 16, Revision A.03,
 Gaussian 16:  ES64L-G16RevA.03 25-Dec-2016

 ----------------------------------------------------------------------
 #P ROCCSD(T)=(MaxCyc=150, Full)/Gen SCF=(maxcycle=400) Integral(DKHSO,
  NoXCTest) Pop=Regular MaxDisk=500GB Guess=Read IOp(5/15=2)
 ----------------------------------------------------------------------

 --
 Co
 --
 Symbolic Z-matrix:
 Charge =  0 Multiplicity = 4

                         Standard orientation:
 ---------------------------------------------------------------------
 Center     Atomic      Atomic             Coordinates (Angstroms)
 Number     Number       Type             X           Y           Z
 ---------------------------------------------------------------------
      1         27           0        0.000000    0.000000    0.000000
 ---------------------------------------------------------------------

 SCF Done:  E(ROHF) =  -1391.88632021     A.U. after   13 cycles
 E2 =    -0.1199570027D+01 EUMP2 =    -0.13930858902323D+04
 CCSD(T)
 CCSD(T)= -0.13930724174D+04

 Unable to determine electronic state:  an orbital has unidentified symmetry.
 Alpha  occ. eigenvalues -- -285.78264 -35.51317 -30.27925 -30.27925 -30.27925
 Alpha  occ. eigenvalues --   -4.75419  -3.18752  -3.18752  -3.18752  -0.71745
 Alpha  occ. eigenvalues --   -0.71745  -0.71745  -0.66688  -0.66688  -0.28171
 Alpha virt. eigenvalues --    0.02134   0.02134   0.02134   0.02851   0.06927
 Alpha virt. eigenvalues --    0.06927   0.06927   0.07399   0.07399   0.07399
 Alpha virt. eigenvalues --    0.07407   0.07407   0.15209   0.23104   0.23104

 Mulliken charges and spin densities:
               1          2
     1  Co   0.000000   3.000000
 Sum of Mulliken charges =   0.00000   3.00000

 Dipole moment (field-independent basis, Debye):
    X=              0.0000    Y=              0.0000    Z=              0.0000  Tot=              0.0000
 Quadrupole moment (field-independent basis, Debye-Ang):
   XX=            -17.4322   YY=            -17.4322   ZZ=            -17.4322
   XY=             -0.0000   XZ=             -0.0000   YZ=              0.0000

 1\1\GINC-C433-004\SP\ROCCSD(T)-Full\Gen\Co1(4)\GWANG18\02-Apr-2018\0\\
 #P ROCCSD(T)=(MaxCyc=150, Full)/Gen SCF=(maxcycle=400) Integral(DKHSO,
  NoXCTest) Pop=Regular MaxDisk=500GB Guess=Read IOp(5/15=2)\\Co\\0,4\C
 o,0,0.,0.,0.\\Version=ES64L-G16RevA.03\HF=-1391.8863202\MP2=-1393.0858
 902\MP3=-1393.0309811\PUHF=-1391.8863202\PMP2-0=-1393.0858902\MP4SDQ=-
 1393.0546731\CCSD=-1393.0479758\CCSD(T)=-1393.0724174\RMSD=8.825e-10\P
 G=OH [O(Co1)]\\@

 Normal termination of Gaussian 16 at Mon Apr  2 13:29:21 2018.
