 Gaussian 16, Revision A.03,
 Gaussian 16:  ES64L-G16RevA.03 25-Dec-2016

 ----------------------------------------------------------------------
 #P ROHF/Gen SCF=(maxcycle=400) Integral(DKHSO, NoXCTest) Pop=Regular M
 axDisk=500GB Guess=(Read, Permute) IOp(5/15=2)
 ----------------------------------------------------------------------

 --
 Co
 --
 Symbolic Z-matrix:
 Charge =  0 Multiplicity = 4

                         Standard orientation:
 ---------------------------------------------------------------------
 Center     Atomic      Atomic             Coordinates (Angstroms)
 Number     Number       Type             X           Y           Z
 ---------------------------------------------------------------------
      1         27           0        0.000000    0.000000    0.000000
 ---------------------------------------------------------------------

 SCF Done:  E(ROHF) =  -1391.88451675     A.U. after   28 cycles

 Unable to determine electronic state:  an orbital has unidentified symmetry.
 Alpha  occ. eigenvalues -- -285.78198 -35.45021 -30.21658 -30.21658 -30.21658
 Alpha  occ. eigenvalues --   -4.57556  -2.97096  -2.97096  -2.97096  -0.60331
 Alpha  occ. eigenvalues --   -0.60331  -0.26816  -0.12504  -0.12504  -0.12504
 Alpha virt. eigenvalues --    0.02314   0.02314   0.02314   0.02998   0.07919
 Alpha virt. eigenvalues --    0.07919   0.07919   0.11304   0.11304   0.11309
 Alpha virt. eigenvalues --    0.11309   0.11309   0.15888   0.28327   0.28327

 Mulliken charges and spin densities:
               1          2
     1  Co  -0.000000   3.000000
 Sum of Mulliken charges =  -0.00000   3.00000

 Dipole moment (field-independent basis, Debye):
    X=              0.0000    Y=              0.0000    Z=              0.0000  Tot=              0.0000
 Quadrupole moment (field-independent basis, Debye-Ang):
   XX=            -17.4335   YY=            -17.4335   ZZ=            -17.4335
   XY=              0.0000   XZ=             -0.0000   YZ=              0.0000

 Normal termination of Gaussian 16 at Mon Apr  2 09:39:35 2018.
