 Gaussian 16, Revision A.03,
 Gaussian 16:  ES64L-G16RevA.03 25-Dec-2016

 ----------------------------------------------------------------------
 #P ROCCSD(T)=(MaxCyc=150, Full)/Gen SCF=(maxcycle=400) Integral(DKHSO,
  NoXCTest) Pop=Regular MaxDisk=500GB Guess=Read IOp(5/15=2)
 ----------------------------------------------------------------------

 --
 Co
 --
 Symbolic Z-matrix:
 Charge =  0 Multiplicity = 4

                         Standard orientation:
 ---------------------------------------------------------------------
 Center     Atomic      Atomic             Coordinates (Angstroms)
 Number     Number       Type             X           Y           Z
 ---------------------------------------------------------------------
      1         27           0        0.000000    0.000000    0.000000
 ---------------------------------------------------------------------

 SCF Done:  E(ROHF) =  -1391.88451675     A.U. after    1 cycles
 E2 =    -0.1146250308D+01 EUMP2 =    -0.13930307670549D+04
 CCSD(T)
 CCSD(T)= -0.13930183408D+04

 Unable to determine electronic state:  an orbital has unidentified symmetry.
 Alpha  occ. eigenvalues -- -285.78275 -35.51345 -30.27954 -30.27954 -30.27954
 Alpha  occ. eigenvalues --   -4.75433  -3.18764  -3.18764  -3.18764  -0.71740
 Alpha  occ. eigenvalues --   -0.71740  -0.71740  -0.66680  -0.66680  -0.28175
 Alpha virt. eigenvalues --    0.02259   0.02259   0.02259   0.02967   0.07753
 Alpha virt. eigenvalues --    0.07753   0.07753   0.11267   0.11267   0.11267
 Alpha virt. eigenvalues --    0.11295   0.11295   0.15723   0.27951   0.27951

 Mulliken charges and spin densities:
               1          2
     1  Co  -0.000000   3.000000
 Sum of Mulliken charges =  -0.00000   3.00000

 Dipole moment (field-independent basis, Debye):
    X=              0.0000    Y=              0.0000    Z=              0.0000  Tot=              0.0000
 Quadrupole moment (field-independent basis, Debye-Ang):
   XX=            -17.4335   YY=            -17.4335   ZZ=            -17.4335
   XY=              0.0000   XZ=             -0.0000   YZ=              0.0000

 1\1\GINC-C433-004\SP\ROCCSD(T)-Full\Gen\Co1(4)\GWANG18\02-Apr-2018\0\\
 #P ROCCSD(T)=(MaxCyc=150, Full)/Gen SCF=(maxcycle=400) Integral(DKHSO,
  NoXCTest) Pop=Regular MaxDisk=500GB Guess=Read IOp(5/15=2)\\Co\\0,4\C
 o,0,0.,0.,0.\\Version=ES64L-G16RevA.03\HF=-1391.8845167\MP2=-1393.0307
 671\MP3=-1392.9773587\PUHF=-1391.8845167\PMP2-0=-1393.0307671\MP4SDQ=-
 1393.0021903\CCSD=-1392.9952513\CCSD(T)=-1393.0183408\RMSD=2.217e-10\P
 G=OH [O(Co1)]\\@

 Normal termination of Gaussian 16 at Mon Apr  2 12:58:28 2018.
