 Gaussian 16, Revision A.03,
 Gaussian 16:  ES64L-G16RevA.03 25-Dec-2016

 ----------------------------------------------------------------------
 #P ROCCSD(T)=(maxcyc=150, Full)/Gen 5d 7f SCF=(maxcycles=300, NoVarAcc
 , VShift=300) MaxDisk=100GB Pop=Regular Pseudo=Read Guess=Read IOp(5/1
 5=2)
 ----------------------------------------------------------------------

 --
 Cr
 --
 Symbolic Z-matrix:
 Charge =  0 Multiplicity = 7

                         Standard orientation:
 ---------------------------------------------------------------------
 Center     Atomic      Atomic             Coordinates (Angstroms)
 Number     Number       Type             X           Y           Z
 ---------------------------------------------------------------------
      1         24           0        0.000000    0.000000    0.000000
 ---------------------------------------------------------------------

 SCF Done:  E(ROHF) =  -85.7717720316     A.U. after   40 cycles
 E2 =    -0.5519456960D+00 EUMP2 =    -0.86323717727656D+02
 CCSD(T)
 CCSD(T)= -0.86334050516D+02

 The electronic state is 7-A1G.
 Alpha  occ. eigenvalues --   -3.57863  -2.29111  -2.29111  -2.29111  -0.36871
 Alpha  occ. eigenvalues --   -0.36871  -0.36871  -0.36871  -0.36871  -0.22721
 Alpha virt. eigenvalues --    0.01732   0.01732   0.01732   0.02411   0.05526
 Alpha virt. eigenvalues --    0.05526   0.05526   0.05526   0.05526   0.05966
 Alpha virt. eigenvalues --    0.05966   0.05966   0.12693   0.17975   0.17975

 Mulliken charges and spin densities:
               1          2
     1  Cr  -0.000000   6.000000
 Sum of Mulliken charges =  -0.00000   6.00000

 Dipole moment (field-independent basis, Debye):
    X=              0.0000    Y=              0.0000    Z=              0.0000  Tot=              0.0000
 Quadrupole moment (field-independent basis, Debye-Ang):
   XX=            -16.4596   YY=            -16.4596   ZZ=            -16.4596
   XY=              0.0000   XZ=             -0.0000   YZ=             -0.0000

 1\1\GINC-C455-044\SP\ROCCSD(T)-Full\Gen\Cr1(7)\AANNABE\05-Apr-2018\0\\
 #P ROCCSD(T)=(maxcyc=150, Full)/Gen 5d 7f SCF=(maxcycles=300, NoVarAcc
 , VShift=300) MaxDisk=100GB Pop=Regular Pseudo=Read Guess=Read IOp(5/1
 5=2)\\Cr\\0,7\Cr,0,0.,0.,0.\\Version=ES64L-G16RevA.03\State=7-A1G\HF=-
 85.771772\MP2=-86.3237177\MP3=-86.3145734\PUHF=-85.771772\PMP2-0=-86.3
 237177\MP4SDQ=-86.3179527\CCSD=-86.3169364\CCSD(T)=-86.3340505\RMSD=9.
 203e-09\PG=OH [O(Cr1)]\\@

 Normal termination of Gaussian 16 at Thu Apr  5 21:10:59 2018.
