 Gaussian 16, Revision A.03,
 Gaussian 16:  ES64L-G16RevA.03 25-Dec-2016

 ----------------------------------------------------------------------
 #P ROCCSD(T)=(MaxCyc=150, Window=(7,0))/Gen SCF=(maxcycle=400) Integra
 l(DKHSO, NoXCTest) Pop=Regular MaxDisk=500GB
 ----------------------------------------------------------------------

 ---
 FeO
 ---
 Symbolic Z-matrix:
 Charge =  0 Multiplicity = 5

                         Standard orientation:
 ---------------------------------------------------------------------
 Center     Atomic      Atomic             Coordinates (Angstroms)
 Number     Number       Type             X           Y           Z
 ---------------------------------------------------------------------
      1         26           0        0.000000    0.000000    0.376471
      2          8           0        0.000000    0.000000   -1.223529
 ---------------------------------------------------------------------

 SCF Done:  E(ROHF) =  -1346.19099782     A.U. after   32 cycles
 E2 =    -0.1027309673D+01 EUMP2 =    -0.13472183074889D+04
 CCSD(T)
 CCSD(T)= -0.13472316527D+04

 Unable to determine electronic state:  partially filled degenerate orbitals.
 Alpha  occ. eigenvalues -- -263.67437 -32.47987 -27.56250 -27.53691 -27.53691
 Alpha  occ. eigenvalues --  -20.44308  -4.39646  -2.98568  -2.91892  -2.91891
 Alpha  occ. eigenvalues --   -1.13193  -0.68252  -0.68252  -0.64212  -0.64160
 Alpha  occ. eigenvalues --   -0.59391  -0.35482  -0.35000  -0.35000
 Alpha virt. eigenvalues --   -0.04505   0.01599   0.01599   0.01813   0.03581
 Alpha virt. eigenvalues --    0.06275   0.06275   0.06464   0.06475   0.06653
 Alpha virt. eigenvalues --    0.07958   0.07958   0.12050   0.13668   0.19208

 Mulliken charges and spin densities:
               1          2
     1  Fe   1.144915   3.852139
     2  O   -1.144915   0.147861
 Sum of Mulliken charges =  -0.00000   4.00000

 Dipole moment (field-independent basis, Debye):
    X=             -0.0000    Y=              0.0000    Z=              8.6343  Tot=              8.6343
 Quadrupole moment (field-independent basis, Debye-Ang):
   XX=            -18.6875   YY=            -18.6875   ZZ=            -22.6210
   XY=              0.0000   XZ=             -0.0000   YZ=              0.0000

 1\1\GINC-C422-091\SP\ROCCSD(T)-RW\Gen\Fe1O1(5)\GWANG18\01-Mar-2018\0\\
 #P ROCCSD(T)=(MaxCyc=150, Window=(7,0))/Gen SCF=(maxcycle=400) Integra
 l(DKHSO, NoXCTest) Pop=Regular MaxDisk=500GB\\FeO\\0,5\Fe,0,0.,0.,0.\O
 ,0,0.,0.,1.6\\Version=ES64L-G16RevA.03\HF=-1346.1909978\MP2=-1347.2183
 075\MP3=-1347.1311933\PUHF=-1346.1909978\PMP2-0=-1347.2183075\MP4SDQ=-
 1347.1975174\CCSD=-1347.1834758\CCSD(T)=-1347.2316527\RMSD=6.612e-09\P
 G=C*V [C*(O1Fe1)]\\@

 Normal termination of Gaussian 16 at Thu Mar  1 04:29:41 2018.
