 Gaussian 16, Revision A.03,
 Gaussian 16:  ES64L-G16RevA.03 25-Dec-2016

 ----------------------------------------------------------------------
 #P ROCCSD(T)=(maxcyc=150, Full, SaveAmplitudes, ReadAmplitudes)/Gen 5d
  7f SCF=(maxcycles=300) Integral(NoXCTest) MaxDisk=500GB Pop=Regular P
 seudo=Read Guess=Read
 ----------------------------------------------------------------------

 ---
 CrH
 ---
 Symbolic Z-matrix:
 Charge =  0 Multiplicity = 6

                         Standard orientation:
 ---------------------------------------------------------------------
 Center     Atomic      Atomic             Coordinates (Angstroms)
 Number     Number       Type             X           Y           Z
 ---------------------------------------------------------------------
      1         24           0        0.000000    0.000000    0.052000
      2          1           0        0.000000    0.000000   -1.248000
 ---------------------------------------------------------------------

 SCF Done:  E(ROHF) =  -86.8219124739     A.U. after   28 cycles
 E2 =    -0.6101761651D+00 EUMP2 =    -0.87432088638988D+02
 CCSD(T)
 CCSD(T)= -0.87461918724D+02

 The electronic state is 6-SG.
 Alpha  occ. eigenvalues --   -3.60880  -2.37095  -2.37095  -2.34514  -0.47827
 Alpha  occ. eigenvalues --   -0.47827  -0.45092  -0.44913  -0.44913  -0.25255
 Alpha virt. eigenvalues --    0.01557   0.01557   0.01883   0.02215   0.04646
 Alpha virt. eigenvalues --    0.05386   0.05386   0.05449   0.05449   0.05696
 Alpha virt. eigenvalues --    0.05696   0.06320   0.09475   0.12961   0.16865

 Mulliken charges and spin densities:
               1          2
     1  Cr   0.413348   4.988269
     2  H   -0.413348   0.011731
 Sum of Mulliken charges =  -0.00000   5.00000

 Dipole moment (field-independent basis, Debye):
    X=              0.0000    Y=              0.0000    Z=              1.8134  Tot=              1.8134
 Quadrupole moment (field-independent basis, Debye-Ang):
   XX=            -16.6751   YY=            -16.6751   ZZ=            -19.9611
   XY=              0.0000   XZ=              0.0000   YZ=              0.0000

 \\#P ROCCSD(T)=(maxcyc=150, Full, SaveAmplitudes, ReadAmplitudes)/Gen
 219125\PMP2-0=-87.4320886\CCSD=-87.4406023\CCSD(T)=-87.4619187\RMSD=4.
 Normal termination of Gaussian 16 at Sun Feb 25 23:47:57 2018.
