 Gaussian 16, Revision A.03,
 Gaussian 16:  ES64L-G16RevA.03 25-Dec-2016

 ----------------------------------------------------------------------
 #P ROCCSD(T)=(MaxCyc=150, Full)/Gen SCF=(maxcycle=400, vshift=200) Pse
 udo=Read Integral(NoXCTest) Pop=Regular MaxDisk=500GB Guess=Read IOp(5
 /15=2)
 ----------------------------------------------------------------------

 ---
 CoH
 ---
 Symbolic Z-matrix:
 Charge =  0 Multiplicity = 3

                         Standard orientation:
 ---------------------------------------------------------------------
 Center     Atomic      Atomic             Coordinates (Angstroms)
 Number     Number       Type             X           Y           Z
 ---------------------------------------------------------------------
      1         27           0        0.000000    0.000000    0.057143
      2          1           0        0.000000    0.000000   -1.542857
 ---------------------------------------------------------------------

 SCF Done:  E(ROHF) =  -145.157421389     A.U. after   29 cycles
 E2 =    -0.9161826879D+00 EUMP2 =    -0.14607360407725D+03
 CCSD(T)
 CCSD(T)= -0.14605235027D+03

 Unable to determine electronic state:  partially filled degenerate orbitals.
 Alpha  occ. eigenvalues --   -4.53696  -2.98516  -2.98516  -2.98505  -0.49067
 Alpha  occ. eigenvalues --   -0.48909  -0.44366  -0.44046  -0.44046  -0.32734
 Alpha virt. eigenvalues --   -0.00211   0.02323   0.02323   0.02758   0.03912
 Alpha virt. eigenvalues --    0.06418   0.06614   0.06624   0.06884   0.06884
 Alpha virt. eigenvalues --    0.08195   0.08195   0.08816   0.14417   0.18040

 Mulliken charges and spin densities:
               1          2
     1  Co   0.324829   1.990409
     2  H   -0.324829   0.009591
 Sum of Mulliken charges =  -0.00000   2.00000

 Dipole moment (field-independent basis, Debye):
    X=              0.0000    Y=              0.0000    Z=              4.5045  Tot=              4.5045
 Quadrupole moment (field-independent basis, Debye-Ang):
   XX=            -13.9267   YY=            -13.9267   ZZ=            -18.2566
   XY=              0.0000   XZ=              0.0000   YZ=              0.0000

 \\#P ROCCSD(T)=(MaxCyc=150, Full)/Gen SCF=(maxcycle=400, vshift=200) P
 \PMP2-0=-146.0736041\MP4SDQ=-146.042851\CCSD=-146.0201859\CCSD(T)=-146
 Normal termination of Gaussian 16 at Sat Apr 28 21:08:19 2018.
