 Gaussian 16, Revision A.03,
 Gaussian 16:  ES64L-G16RevA.03 25-Dec-2016

 ----------------------------------------------------------------------
 #P ROCCSD(T)=(MaxCyc=150, Full)/Gen SCF=(maxcycle=400, vshift=200) Pse
 udo=Read Integral(NoXCTest) Pop=Regular MaxDisk=500GB Guess=Read IOp(5
 /15=2)
 ----------------------------------------------------------------------

 ---
 CoH
 ---
 Symbolic Z-matrix:
 Charge =  0 Multiplicity = 3

                         Standard orientation:
 ---------------------------------------------------------------------
 Center     Atomic      Atomic             Coordinates (Angstroms)
 Number     Number       Type             X           Y           Z
 ---------------------------------------------------------------------
      1         27           0        0.000000    0.000000    0.057143
      2          1           0        0.000000    0.000000   -1.542857
 ---------------------------------------------------------------------

 SCF Done:  E(ROHF) =  -145.156029548     A.U. after   73 cycles
 E2 =    -0.8547248293D+00 EUMP2 =    -0.14601075437701D+03
 CCSD(T)
 CCSD(T)= -0.14599339995D+03

 Unable to determine electronic state:  partially filled degenerate orbitals.
 Alpha  occ. eigenvalues --   -4.53693  -2.98520  -2.98520  -2.98509  -0.49068
 Alpha  occ. eigenvalues --   -0.48909  -0.44356  -0.44033  -0.44033  -0.32733
 Alpha virt. eigenvalues --   -0.00147   0.02654   0.02654   0.03395   0.04808
 Alpha virt. eigenvalues --    0.09393   0.09393   0.10172   0.11280   0.11323
 Alpha virt. eigenvalues --    0.11534   0.11534   0.11588   0.18824   0.24910

 Mulliken charges and spin densities:
               1          2
     1  Co   0.370736   1.983355
     2  H   -0.370736   0.016645
 Sum of Mulliken charges =  -0.00000   2.00000

 Dipole moment (field-independent basis, Debye):
    X=              0.0000    Y=              0.0000    Z=              4.5096  Tot=              4.5096
 Quadrupole moment (field-independent basis, Debye-Ang):
   XX=            -13.9396   YY=            -13.9396   ZZ=            -18.2504
   XY=              0.0000   XZ=              0.0000   YZ=              0.0000

 \\#P ROCCSD(T)=(MaxCyc=150, Full)/Gen SCF=(maxcycle=400, vshift=200) P
 \PMP2-0=-146.0107544\MP4SDQ=-145.9868648\CCSD=-145.9633889\CCSD(T)=-14
 Normal termination of Gaussian 16 at Sat Apr 21 22:44:12 2018.
