 Gaussian 16, Revision A.03,
 Gaussian 16:  ES64L-G16RevA.03 25-Dec-2016

 ----------------------------------------------------------------------
 #P ROCCSD(T)=(MaxCyc=150, Full)/Gen SCF=(maxcycle=400, vshift=200) Pse
 udo=Read Integral(NoXCTest) Pop=Regular MaxDisk=500GB Guess=Read IOp(5
 /15=2)
 ----------------------------------------------------------------------

 ---
 CoH
 ---
 Symbolic Z-matrix:
 Charge =  0 Multiplicity = 3

                         Standard orientation:
 ---------------------------------------------------------------------
 Center     Atomic      Atomic             Coordinates (Angstroms)
 Number     Number       Type             X           Y           Z
 ---------------------------------------------------------------------
      1         27           0        0.000000    0.000000    0.057143
      2          1           0        0.000000    0.000000   -1.542857
 ---------------------------------------------------------------------

 SCF Done:  E(ROHF) =  -145.157211280     A.U. after   34 cycles
 E2 =    -0.8961922246D+00 EUMP2 =    -0.14605340350487D+03
 CCSD(T)
 CCSD(T)= -0.14603439980D+03

 Unable to determine electronic state:  partially filled degenerate orbitals.
 Alpha  occ. eigenvalues --   -4.53696  -2.98516  -2.98516  -2.98504  -0.49070
 Alpha  occ. eigenvalues --   -0.48911  -0.44361  -0.44041  -0.44041  -0.32733
 Alpha virt. eigenvalues --   -0.00168   0.02402   0.02402   0.03073   0.04529
 Alpha virt. eigenvalues --    0.06989   0.07317   0.07331   0.07559   0.07559
 Alpha virt. eigenvalues --    0.08590   0.08590   0.10115   0.18145   0.19916

 Mulliken charges and spin densities:
               1          2
     1  Co   0.348917   1.994336
     2  H   -0.348917   0.005664
 Sum of Mulliken charges =  -0.00000   2.00000

 Dipole moment (field-independent basis, Debye):
    X=              0.0000    Y=              0.0000    Z=              4.5049  Tot=              4.5049
 Quadrupole moment (field-independent basis, Debye-Ang):
   XX=            -13.9271   YY=            -13.9271   ZZ=            -18.2562
   XY=              0.0000   XZ=              0.0000   YZ=              0.0000

 \\#P ROCCSD(T)=(MaxCyc=150, Full)/Gen SCF=(maxcycle=400, vshift=200) P
 PMP2-0=-146.0534035\MP4SDQ=-146.0258087\CCSD=-146.0028226\CCSD(T)=-146
 Normal termination of Gaussian 16 at Sat Apr 21 23:28:41 2018.
