 Gaussian 16, Revision A.03,
 Gaussian 16:  ES64L-G16RevA.03 25-Dec-2016

 ----------------------------------------------------------------------
 #P ROCCSD(T)=(maxcyc=150, Full, ReadAmplitudes)/Gen 5d 7f SCF=(maxcycl
 es=300) Integral(NoXCTest) MaxDisk=500GB Pop=Regular Pseudo=Read Guess
 =Read
 ----------------------------------------------------------------------

 ---
 CrH
 ---
 Symbolic Z-matrix:
 Charge =  0 Multiplicity = 6

                         Standard orientation:
 ---------------------------------------------------------------------
 Center     Atomic      Atomic             Coordinates (Angstroms)
 Number     Number       Type             X           Y           Z
 ---------------------------------------------------------------------
      1         24           0        0.000000    0.000000    0.080000
      2          1           0        0.000000    0.000000   -1.920000
 ---------------------------------------------------------------------

 SCF Done:  E(ROHF) =  -86.3683870550     A.U. after   22 cycles
 E2 =    -0.5460946613D+00 EUMP2 =    -0.86914481716286D+02
 CCSD(T)
 CCSD(T)= -0.86956162721D+02

 The electronic state is 6-SG.
 Alpha  occ. eigenvalues --   -3.88071  -2.59964  -2.59964  -2.55141  -0.52994
 Alpha  occ. eigenvalues --   -0.52994  -0.49862  -0.49862  -0.38618  -0.27619
 Alpha virt. eigenvalues --    0.00921   0.00921   0.01741   0.02373   0.04296
 Alpha virt. eigenvalues --    0.04450   0.04450   0.04900   0.04900   0.05227
 Alpha virt. eigenvalues --    0.05227   0.06394   0.08514   0.10848   0.15365

 Mulliken charges and spin densities:
               1          2
     1  Cr   0.335439   4.967110
     2  H   -0.335439   0.032890
 Sum of Mulliken charges =  -0.00000   5.00000

 Dipole moment (field-independent basis, Debye):
    X=              0.0000    Y=              0.0000    Z=              2.8577  Tot=              2.8577
 Quadrupole moment (field-independent basis, Debye-Ang):
   XX=            -17.4317   YY=            -17.4317   ZZ=            -26.7874
   XY=              0.0000   XZ=              0.0000   YZ=              0.0000

 \\#P ROCCSD(T)=(maxcyc=150, Full, ReadAmplitudes)/Gen 5d 7f SCF=(maxcy
 .9144817\CCSD=-86.9387264\CCSD(T)=-86.9561627\RMSD=8.911e-09\PG=C*V [C
 Normal termination of Gaussian 16 at Mon Feb 26 20:29:13 2018.
