 Gaussian 16, Revision A.03,
 Gaussian 16:  ES64L-G16RevA.03 25-Dec-2016

 ----------------------------------------------------------------------
 #P ROCCSD(T)=(MaxCyc=150, Full)/Gen SCF=(maxcycle=400) Pseudo=Read Int
 egral(NoXCTest) Pop=Regular MaxDisk=500GB Guess=Read IOp(5/15=2)
 ----------------------------------------------------------------------

 ---
 CuO
 ---
 Symbolic Z-matrix:
 Charge =  0 Multiplicity = 2

                         Standard orientation:
 ---------------------------------------------------------------------
 Center     Atomic      Atomic             Coordinates (Angstroms)
 Number     Number       Type             X           Y           Z
 ---------------------------------------------------------------------
      1         29           0        0.000000    0.000000    0.324324
      2          8           0        0.000000    0.000000   -1.175676
 ---------------------------------------------------------------------

 SCF Done:  E(ROHF) =  -212.185915896     A.U. after   16 cycles
 E2 =    -0.1365755137D+01 EUMP2 =    -0.21355167103331D+03
 CCSD(T)
 CCSD(T)= -0.21348264669D+03

 Unable to determine electronic state:  an orbital has unidentified symmetry.
 Alpha  occ. eigenvalues --   -5.31161  -3.58810  -3.57329  -3.56658  -1.27924
 Alpha  occ. eigenvalues --   -0.64722  -0.61128  -0.59346  -0.54598  -0.54597
 Alpha  occ. eigenvalues --   -0.47981  -0.42493  -0.38257
 Alpha virt. eigenvalues --   -0.00580   0.02660   0.02797   0.03602   0.04683
 Alpha virt. eigenvalues --    0.09191   0.09536   0.12042   0.13634   0.13646
 Alpha virt. eigenvalues --    0.14268   0.14312   0.14696   0.19083   0.21696

 Mulliken charges and spin densities:
               1          2
     1  Cu   0.711189   0.057315
     2  O   -0.711189   0.942685
 Sum of Mulliken charges =  -0.00000   1.00000

 Dipole moment (field-independent basis, Debye):
    X=              0.0000    Y=              0.0000    Z=              4.8752  Tot=              4.8752
 Quadrupole moment (field-independent basis, Debye-Ang):
   XX=            -16.1793   YY=            -17.6931   ZZ=            -18.9006
   XY=              0.0000   XZ=              0.0000   YZ=              0.0000

 \\#P ROCCSD(T)=(MaxCyc=150, Full)/Gen SCF=(maxcycle=400) Pseudo=Read I
 551671\MP4SDQ=-213.5083606\CCSD=-213.4301\CCSD(T)=-213.4826467\RMSD=5.
 Normal termination of Gaussian 16 at Mon Mar 26 13:04:02 2018.
