 Gaussian 16, Revision A.03,
 Gaussian 16:  ES64L-G16RevA.03 25-Dec-2016

 ----------------------------------------------------------------------
 #P ROCCSD(T)=(MaxCyc=150, Full)/Gen SCF=(maxcycle=400) Pseudo=Read Int
 egral(NoXCTest) Pop=Regular MaxDisk=500GB Guess=Read IOp(5/15=2)
 ----------------------------------------------------------------------

 ---
 CuO
 ---
 Symbolic Z-matrix:
 Charge =  0 Multiplicity = 2

                         Standard orientation:
 ---------------------------------------------------------------------
 Center     Atomic      Atomic             Coordinates (Angstroms)
 Number     Number       Type             X           Y           Z
 ---------------------------------------------------------------------
      1         29           0        0.000000    0.000000    0.324324
      2          8           0        0.000000    0.000000   -1.175676
 ---------------------------------------------------------------------

 SCF Done:  E(ROHF) =  -212.170529551     A.U. after   27 cycles
 E2 =    -0.1301826897D+01 EUMP2 =    -0.21347235644833D+03
 CCSD(T)
 CCSD(T)= -0.21340610052D+03

 Unable to determine electronic state:  an orbital has unidentified symmetry.
 Alpha  occ. eigenvalues --   -5.31437  -3.59012  -3.57520  -3.56844  -1.27975
 Alpha  occ. eigenvalues --   -0.64723  -0.61124  -0.59362  -0.54581  -0.54580
 Alpha  occ. eigenvalues --   -0.47980  -0.42498  -0.38274
 Alpha virt. eigenvalues --   -0.00569   0.03000   0.03171   0.04022   0.04969
 Alpha virt. eigenvalues --    0.10704   0.11149   0.13749   0.19399   0.19883
 Alpha virt. eigenvalues --    0.19905   0.21358   0.21477   0.22459   0.26023

 Mulliken charges and spin densities:
               1          2
     1  Cu   0.903282   0.051110
     2  O   -0.903282   0.948890
 Sum of Mulliken charges =  -0.00000   1.00000

 Dipole moment (field-independent basis, Debye):
    X=              0.0000    Y=              0.0000    Z=              4.8884  Tot=              4.8884
 Quadrupole moment (field-independent basis, Debye-Ang):
   XX=            -16.1910   YY=            -17.7203   ZZ=            -18.8841
   XY=              0.0000   XZ=              0.0000   YZ=              0.0000

 \\#P ROCCSD(T)=(MaxCyc=150, Full)/Gen SCF=(maxcycle=400) Pseudo=Read I
 .4723564\MP4SDQ=-213.4351928\CCSD=-213.3560999\CCSD(T)=-213.4061005\RM
 Normal termination of Gaussian 16 at Mon Mar 26 10:30:07 2018.
