 Gaussian 16, Revision A.03,
 Gaussian 16:  ES64L-G16RevA.03 25-Dec-2016

 ----------------------------------------------------------------------
 #P ROCCSD(T)=(maxcyc=150, Full, SaveAmplitudes, ReadAmplitudes)/Gen 5d
  7f SCF=(maxcycles=300) Integral(NoXCTest) MaxDisk=500GB Pop=Regular P
 seudo=Read Guess=Read IOp(5/15=2)
 ----------------------------------------------------------------------

 ---
 ScO
 ---
 Symbolic Z-matrix:
 Charge =  0 Multiplicity = 2

                         Standard orientation:
 ---------------------------------------------------------------------
 Center     Atomic      Atomic             Coordinates (Angstroms)
 Number     Number       Type             X           Y           Z
 ---------------------------------------------------------------------
      1         21           0        0.000000    0.000000    0.413793
      2          8           0        0.000000    0.000000   -1.086207
 ---------------------------------------------------------------------

 SCF Done:  E(ROHF) =  -61.9343226940     A.U. after   16 cycles
 E2 =    -0.6777759169D+00 EUMP2 =    -0.62612098610853D+02
 CCSD(T)
 CCSD(T)= -0.62639657107D+02

 The electronic state is 2-SG.
 Alpha  occ. eigenvalues --   -2.60933  -1.68201  -1.57665  -1.57665  -1.11534
 Alpha  occ. eigenvalues --   -0.47949  -0.47949  -0.45036  -0.22561
 Alpha virt. eigenvalues --    0.00611   0.00611   0.01953   0.02285   0.03705
 Alpha virt. eigenvalues --    0.03705   0.03849   0.03849   0.04118   0.04327
 Alpha virt. eigenvalues --    0.04327   0.06613   0.09782   0.09782   0.10885

 Mulliken charges and spin densities:
               1          2
     1  Sc   1.286074   0.978552
     2  O   -1.286074   0.021448
 Sum of Mulliken charges =  -0.00000   1.00000

 Dipole moment (field-independent basis, Debye):
    X=              0.0000    Y=              0.0000    Z=              2.7529  Tot=              2.7529
 Quadrupole moment (field-independent basis, Debye-Ang):
   XX=            -22.0052   YY=            -22.0052   ZZ=            -31.0081
   XY=              0.0000   XZ=              0.0000   YZ=              0.0000

 \\#P ROCCSD(T)=(maxcyc=150, Full, SaveAmplitudes, ReadAmplitudes)/Gen
 35\CCSD=-62.6043832\CCSD(T)=-62.6396571\RMSD=3.463e-09\PG=C*V [C*(O1Sc
 Normal termination of Gaussian 16 at Tue Mar 13 12:17:58 2018.
