 Gaussian 16, Revision A.03,
 Gaussian 16:  ES64L-G16RevA.03 25-Dec-2016

 ----------------------------------------------------------------------
 #P ROCCSD(T)=(maxcyc=150, Full)/Gen 5d 7f SCF=(maxcycles=300) Integral
 (NoXCTest) MaxDisk=500GB Pop=Regular Pseudo=Read Guess=Read
 ----------------------------------------------------------------------

 ---
 MnH
 ---
 Symbolic Z-matrix:
 Charge =  0 Multiplicity = 7

                         Standard orientation:
 ---------------------------------------------------------------------
 Center     Atomic      Atomic             Coordinates (Angstroms)
 Number     Number       Type             X           Y           Z
 ---------------------------------------------------------------------
      1         25           0        0.000000    0.000000    0.050000
      2          1           0        0.000000    0.000000   -1.250000
 ---------------------------------------------------------------------

 SCF Done:  E(ROHF) =  -103.991938347     A.U. after   20 cycles
 E2 =    -0.6137797473D+00 EUMP2 =    -0.10460571809474D+03
 CCSD(T)
 CCSD(T)= -0.10462580299D+03

 The electronic state is 7-SG.
 Alpha  occ. eigenvalues --   -4.15515  -2.80424  -2.79943  -2.79943  -0.66577
 Alpha  occ. eigenvalues --   -0.63485  -0.63485  -0.63274  -0.63274  -0.41687
 Alpha  occ. eigenvalues --   -0.24355
 Alpha virt. eigenvalues --    0.01309   0.01309   0.01957   0.03127   0.05144
 Alpha virt. eigenvalues --    0.05144   0.05717   0.05833   0.05833   0.06172
 Alpha virt. eigenvalues --    0.06172   0.08357   0.13971   0.15114   0.17893

 Mulliken charges and spin densities:
               1          2
     1  Mn   0.457285   5.913005
     2  H   -0.457285   0.086995
 Sum of Mulliken charges =  -0.00000   6.00000

 Dipole moment (field-independent basis, Debye):
    X=              0.0000    Y=              0.0000    Z=             -0.0309  Tot=              0.0309
 Quadrupole moment (field-independent basis, Debye-Ang):
   XX=            -15.9490   YY=            -15.9490   ZZ=            -25.3199
   XY=              0.0000   XZ=              0.0000   YZ=              0.0000

 \\#P ROCCSD(T)=(maxcyc=150, Full)/Gen 5d 7f SCF=(maxcycles=300) Integr
 0=-104.6057181\MP4SDQ=-104.6071218\CCSD=-104.6083768\CCSD(T)=-104.6258
 Normal termination of Gaussian 16 at Mon Feb 12 22:53:58 2018.
