 Gaussian 16, Revision A.03,
 Gaussian 16:  ES64L-G16RevA.03 25-Dec-2016

 ----------------------------------------------------------------------
 #P ROCCSD(T)=(maxcyc=150, Full, SaveAmplitudes, ReadAmplitudes)/Gen 5d
  7f SCF=(maxcycles=300) Integral(NoXCTest) MaxDisk=500GB Pop=Regular P
 seudo=Read Guess=Read IOp(5/15=2)
 ----------------------------------------------------------------------

 ---
 TiO
 ---
 Symbolic Z-matrix:
 Charge =  0 Multiplicity = 3

                         Standard orientation:
 ---------------------------------------------------------------------
 Center     Atomic      Atomic             Coordinates (Angstroms)
 Number     Number       Type             X           Y           Z
 ---------------------------------------------------------------------
      1         22           0        0.000000    0.000000    0.346667
      2          8           0        0.000000    0.000000   -0.953333
 ---------------------------------------------------------------------

 SCF Done:  E(ROHF) =  -73.1790290151     A.U. after   22 cycles
 E2 =    -0.7316272778D+00 EUMP2 =    -0.73910656292977D+02
 CCSD(T)
 CCSD(T)= -0.73935303426D+02

 Unable to determine electronic state:  an orbital has unidentified symmetry.
 Alpha  occ. eigenvalues --   -2.93655  -1.96384  -1.82725  -1.82725  -1.14654
 Alpha  occ. eigenvalues --   -0.59297  -0.59297  -0.52588  -0.35621  -0.21611
 Alpha virt. eigenvalues --    0.01193   0.01193   0.02319   0.02551   0.04819
 Alpha virt. eigenvalues --    0.04819   0.05012   0.05165   0.05329   0.05795
 Alpha virt. eigenvalues --    0.05795   0.08533   0.11829   0.13698   0.14646

 Mulliken charges and spin densities:
               1          2
     1  Ti   0.709490   2.041820
     2  O   -0.709490  -0.041820
 Sum of Mulliken charges =  -0.00000   2.00000

 Dipole moment (field-independent basis, Debye):
    X=              0.0000    Y=              0.0000    Z=              0.6172  Tot=              0.6172
 Quadrupole moment (field-independent basis, Debye-Ang):
   XX=            -22.0734   YY=            -22.0734   ZZ=            -27.0951
   XY=              0.0000   XZ=              0.0000   YZ=              0.0000

 \\#P ROCCSD(T)=(maxcyc=150, Full, SaveAmplitudes, ReadAmplitudes)/Gen
 009109\CCSD(T)=-73.9353034\RMSD=4.133e-09\PG=C*V [C*(O1Ti1)]\\@
 Normal termination of Gaussian 16 at Sat Mar 10 00:47:37 2018.
