 Gaussian 16, Revision A.03,
 Gaussian 16:  ES64L-G16RevA.03 25-Dec-2016

 ----------------------------------------------------------------------
 #P ROCCSD(T)=(MaxCyc=150, Window=(7,0))/Gen SCF=(maxcycle=400) Integra
 l(DKHSO, NoXCTest) Pop=Regular MaxDisk=500GB Guess=Read IOp(5/15=2)
 ----------------------------------------------------------------------

 ---
 ZnO
 ---
 Symbolic Z-matrix:
 Charge =  0 Multiplicity = 1

                         Standard orientation:
 ---------------------------------------------------------------------
 Center     Atomic      Atomic             Coordinates (Angstroms)
 Number     Number       Type             X           Y           Z
 ---------------------------------------------------------------------
      1         30           0        0.000000    0.000000    0.315789
      2          8           0        0.000000    0.000000   -1.184211
 ---------------------------------------------------------------------

 SCF Done:  E(ROHF) =  -1869.04079430     A.U. after   13 cycles
 E2 =    -0.1342418638D+01 EUMP2 =    -0.18703832129399D+04
 CCSD(T)
 CCSD(T)= -0.18702982201D+04

 The electronic state is 1-SG.
 Alpha  occ. eigenvalues -- -357.61595 -45.38933 -39.19210 -39.19210 -39.18949
 Alpha  occ. eigenvalues --  -20.49276  -5.86112  -3.94573  -3.93657  -3.93657
 Alpha  occ. eigenvalues --   -1.19268  -0.83921  -0.83921  -0.82101  -0.82101
 Alpha  occ. eigenvalues --   -0.79252  -0.39868  -0.39868  -0.39303
 Alpha virt. eigenvalues --   -0.04278   0.02844   0.02844   0.02845   0.04657
 Alpha virt. eigenvalues --    0.09532   0.09532   0.13516   0.17976   0.21984
 Alpha virt. eigenvalues --    0.23668   0.23668   0.24893   0.24893   0.30242

 Mulliken charges and spin densities:
               1          2
     1  Zn   1.228068   0.000000
     2  O   -1.228068   0.000000
 Sum of Mulliken charges =  -0.00000   0.00000

 Dipole moment (field-independent basis, Debye):
    X=              0.0000    Y=              0.0000    Z=              7.0112  Tot=              7.0112
 Quadrupole moment (field-independent basis, Debye-Ang):
   XX=            -18.1599   YY=            -18.1599   ZZ=            -20.9842
   XY=              0.0000   XZ=              0.0000   YZ=              0.0000

 ROCCSD(T)=(MaxCyc=150, Window=(7,0))/Gen SCF=(maxcycle=400) Integral(D
 3\PMP2-0=-1870.3832129\MP4SDQ=-1870.306902\CCSD=-1870.2500307\CCSD(T)=
 Normal termination of Gaussian 16 at Mon Apr 16 13:10:15 2018.
