 Gaussian 16, Revision A.03,
 Gaussian 16:  ES64L-G16RevA.03 25-Dec-2016

 ----------------------------------------------------------------------
 #P ROCCSD(T)=(maxcyc=150, Full)/Gen 5d 7f SCF=(maxcycles=300) Integral
 (NoXCTest) MaxDisk=500GB Pop=Regular Pseudo=Read Guess=Read
 ----------------------------------------------------------------------

 ---
 CrH
 ---
 Symbolic Z-matrix:
 Charge =  0 Multiplicity = 6

                         Standard orientation:
 ---------------------------------------------------------------------
 Center     Atomic      Atomic             Coordinates (Angstroms)
 Number     Number       Type             X           Y           Z
 ---------------------------------------------------------------------
      1         24           0        0.000000    0.000000    0.056000
      2          1           0        0.000000    0.000000   -1.344000
 ---------------------------------------------------------------------

 SCF Done:  E(ROHF) =  -86.6669794556     A.U. after   26 cycles
 E2 =    -0.5948971049D+00 EUMP2 =    -0.87261876560482D+02
 CCSD(T)
 CCSD(T)= -0.87294276373D+02

 The electronic state is 6-SG.
 Alpha  occ. eigenvalues --   -3.67286  -2.42690  -2.42690  -2.39448  -0.49428
 Alpha  occ. eigenvalues --   -0.49428  -0.46599  -0.46599  -0.43706  -0.25456
 Alpha virt. eigenvalues --    0.01488   0.01488   0.01783   0.02086   0.04399
 Alpha virt. eigenvalues --    0.05023   0.05023   0.05026   0.05026   0.05331
 Alpha virt. eigenvalues --    0.05331   0.05965   0.08388   0.12027   0.15048

 Mulliken charges and spin densities:
               1          2
     1  Cr   0.395480   4.978805
     2  H   -0.395480   0.021195
 Sum of Mulliken charges =  -0.00000   5.00000

 Dipole moment (field-independent basis, Debye):
    X=              0.0000    Y=              0.0000    Z=              1.9634  Tot=              1.9634
 Quadrupole moment (field-independent basis, Debye-Ang):
   XX=            -16.8388   YY=            -16.8388   ZZ=            -20.8224
   XY=              0.0000   XZ=              0.0000   YZ=              0.0000

 \\#P ROCCSD(T)=(maxcyc=150, Full)/Gen 5d 7f SCF=(maxcycles=300) Integr
 7.2618766\MP4SDQ=-87.2662384\CCSD=-87.2740008\CCSD(T)=-87.2942764\RMSD
 Normal termination of Gaussian 16 at Tue Feb 13 02:17:45 2018.
