 Gaussian 16, Revision A.03,
 Gaussian 16:  ES64L-G16RevA.03 25-Dec-2016

 ----------------------------------------------------------------------
 #P ROCCSD(T)=(maxcyc=150, Full, SaveAmplitudes, ReadAmplitudes)/Gen 5d
  7f SCF=(maxcycles=300, VShift=400) Integral(NoXCTest) MaxDisk=500GB P
 op=Full Pseudo=Read Guess=Read
 ----------------------------------------------------------------------

 ---
 MnH
 ---
 Symbolic Z-matrix:
 Charge =  0 Multiplicity = 7

                         Standard orientation:
 ---------------------------------------------------------------------
 Center     Atomic      Atomic             Coordinates (Angstroms)
 Number     Number       Type             X           Y           Z
 ---------------------------------------------------------------------
      1         25           0        0.000000    0.000000    0.076923
      2          1           0        0.000000    0.000000   -1.923077
 ---------------------------------------------------------------------

 SCF Done:  E(ROHF) =  -103.795034226     A.U. after   29 cycles
 E2 =    -0.5960123109D+00 EUMP2 =    -0.10439104653705D+03
 CCSD(T)
 CCSD(T)= -0.10441416677D+03

 The electronic state is 7-SG.
 Alpha  occ. eigenvalues --   -4.16357  -2.78448  -2.78448  -2.78180  -0.65840
 Alpha  occ. eigenvalues --   -0.65840  -0.65164  -0.65164  -0.65120  -0.38735
 Alpha  occ. eigenvalues --   -0.27015
 Alpha virt. eigenvalues --    0.00962   0.00962   0.02145   0.02897   0.04858
 Alpha virt. eigenvalues --    0.04858   0.05574   0.05754   0.05754   0.06197
 Alpha virt. eigenvalues --    0.06197   0.09621   0.12167   0.13647   0.18008

 Mulliken charges and spin densities:
               1          2
     1  Mn   0.381634   5.952060
     2  H   -0.381634   0.047940
 Sum of Mulliken charges =  -0.00000   6.00000

 Dipole moment (field-independent basis, Debye):
    X=              0.0000    Y=              0.0000    Z=              2.4264  Tot=              2.4264
 Quadrupole moment (field-independent basis, Debye-Ang):
   XX=            -16.4651   YY=            -16.4651   ZZ=            -28.0498
   XY=              0.0000   XZ=              0.0000   YZ=              0.0000

 \\#P ROCCSD(T)=(maxcyc=150, Full, SaveAmplitudes, ReadAmplitudes)/Gen
 PUHF=-103.7950342\PMP2-0=-104.3910465\CCSD=-104.3976454\CCSD(T)=-104.4
 Normal termination of Gaussian 16 at Sat May  5 12:30:36 2018.
