 Gaussian 16, Revision A.03,
 Gaussian 16:  ES64L-G16RevA.03 25-Dec-2016

 ----------------------------------------------------------------------
 #P ROCCSD(T)=(maxcyc=150, Full, SaveAmplitudes, ReadAmplitudes)/Gen 5d
  7f SCF=(maxcycles=300) Integral(NoXCTest) MaxDisk=500GB Pop=Regular P
 seudo=Read Guess=Read
 ----------------------------------------------------------------------

 ---
 CrO
 ---
 Symbolic Z-matrix:
 Charge =  0 Multiplicity = 5

                         Standard orientation:
 ---------------------------------------------------------------------
 Center     Atomic      Atomic             Coordinates (Angstroms)
 Number     Number       Type             X           Y           Z
 ---------------------------------------------------------------------
      1         24           0        0.000000    0.000000    0.475000
      2          8           0        0.000000    0.000000   -1.425000
 ---------------------------------------------------------------------

 SCF Done:  E(ROHF) =  -101.994356598     A.U. after   51 cycles
 E2 =    -0.9049915713D+00 EUMP2 =    -0.10289934816904D+03
 CCSD(T)
 CCSD(T)= -0.10295293528D+03

 Unable to determine electronic state:  an orbital has unidentified symmetry.
 Alpha  occ. eigenvalues --   -3.70761  -2.49184  -2.44016  -2.43368  -1.06812
 Alpha  occ. eigenvalues --   -0.58938  -0.56505  -0.56377  -0.53721  -0.33197
 Alpha  occ. eigenvalues --   -0.32660  -0.31968
 Alpha virt. eigenvalues --   -0.05417   0.00399   0.00990   0.01110   0.03065
 Alpha virt. eigenvalues --    0.04229   0.05143   0.05143   0.05382   0.06122
 Alpha virt. eigenvalues --    0.06161   0.06350   0.10117   0.11197   0.12174

 Mulliken charges and spin densities:
               1          2
     1  Cr   1.094011   3.966008
     2  O   -1.094011   0.033992
 Sum of Mulliken charges =   0.00000   4.00000

 Dipole moment (field-independent basis, Debye):
    X=              0.0000    Y=              0.0000    Z=             10.2145  Tot=             10.2145
 Quadrupole moment (field-independent basis, Debye-Ang):
   XX=            -19.6670   YY=            -18.9690   ZZ=            -24.7945
   XY=              0.0000   XZ=              0.0000   YZ=              0.0000

 \\#P ROCCSD(T)=(maxcyc=150, Full, SaveAmplitudes, ReadAmplitudes)/Gen
 43\CCSD(T)=-102.9529353\RMSD=7.854e-09\PG=C*V [C*(O1Cr1)]\\@
 Normal termination of Gaussian 16 at Tue Mar 13 09:17:59 2018.
