 Gaussian 16, Revision A.03,
 Gaussian 16:  ES64L-G16RevA.03 25-Dec-2016

 ----------------------------------------------------------------------
 #P ROCCSD(T)=(maxcyc=150, Full, SaveAmplitudes, ReadAmplitudes)/Gen 5d
  7f SCF=(maxcycles=300) Integral(NoXCTest) MaxDisk=500GB Pop=Regular P
 seudo=Read Guess=Read IOp(5/15=2)
 ----------------------------------------------------------------------

 ---
 CrH
 ---
 Symbolic Z-matrix:
 Charge =  0 Multiplicity = 6

                         Standard orientation:
 ---------------------------------------------------------------------
 Center     Atomic      Atomic             Coordinates (Angstroms)
 Number     Number       Type             X           Y           Z
 ---------------------------------------------------------------------
      1         24           0        0.000000    0.000000    0.056000
      2          1           0        0.000000    0.000000   -1.344000
 ---------------------------------------------------------------------

 SCF Done:  E(ROHF) =  -86.8486333240     A.U. after   29 cycles
 E2 =    -0.5721372271D+00 EUMP2 =    -0.87420770551025D+02
 CCSD(T)
 CCSD(T)= -0.87457950370D+02

 The electronic state is 6-SG.
 Alpha  occ. eigenvalues --   -3.62993  -2.39295  -2.39295  -2.35808  -0.49972
 Alpha  occ. eigenvalues --   -0.49972  -0.46963  -0.46963  -0.44003  -0.25394
 Alpha virt. eigenvalues --    0.01527   0.01527   0.02232   0.02377   0.05834
 Alpha virt. eigenvalues --    0.05834   0.06055   0.07751   0.07751   0.08092
 Alpha virt. eigenvalues --    0.08092   0.08465   0.10173   0.18879   0.21486

 Mulliken charges and spin densities:
               1          2
     1  Cr   0.649987   5.003140
     2  H   -0.649987  -0.003140
 Sum of Mulliken charges =  -0.00000   5.00000

 Dipole moment (field-independent basis, Debye):
    X=              0.0000    Y=              0.0000    Z=              1.7358  Tot=              1.7358
 Quadrupole moment (field-independent basis, Debye-Ang):
   XX=            -16.7510   YY=            -16.7510   ZZ=            -21.2070
   XY=              0.0000   XZ=              0.0000   YZ=              0.0000

 \\#P ROCCSD(T)=(maxcyc=150, Full, SaveAmplitudes, ReadAmplitudes)/Gen
 92\CCSD=-87.4385169\CCSD(T)=-87.4579504\RMSD=5.682e-09\PG=C*V [C*(H1Cr
 Normal termination of Gaussian 16 at Mon Feb 26 01:41:33 2018.
