 Gaussian 16, Revision A.03,
 Gaussian 16:  ES64L-G16RevA.03 25-Dec-2016

 ----------------------------------------------------------------------
 #P ROCCSD(T)=(maxcyc=150, FrzINGC)/Gen 5d 7f SCF=(maxcycles=300) Integ
 ral(NoXCTest, DKHSO) MaxDisk=500GB Pop=Regular IOp(5/15=2) Guess=Read
 ----------------------------------------------------------------------

 ---
 ScH
 ---
 Symbolic Z-matrix:
 Charge =  0 Multiplicity = 1

                         Standard orientation:
 ---------------------------------------------------------------------
 Center     Atomic      Atomic             Coordinates (Angstroms)
 Number     Number       Type             X           Y           Z
 ---------------------------------------------------------------------
      1         21           0        0.000000    0.000000    0.050000
      2          1           0        0.000000    0.000000   -1.050000
 ---------------------------------------------------------------------

 SCF Done:  E(ROHF) =  -763.647654746     A.U. after   12 cycles
 E2 =    -0.4091227868D+00 EUMP2 =    -0.76405677753280D+03
 CCSD(T)
 CCSD(T)= -0.76409166369D+03

 The electronic state is 1-SG.
 Alpha  occ. eigenvalues -- -166.81148 -19.24884 -15.67355 -15.67355 -15.66703
 Alpha  occ. eigenvalues --   -2.60157  -1.63975  -1.57115  -1.57115  -0.47319
 Alpha  occ. eigenvalues --   -0.21334
 Alpha virt. eigenvalues --    0.01311   0.01336   0.01336   0.02053   0.02881
 Alpha virt. eigenvalues --    0.02881   0.02895   0.02908   0.02908   0.04245
 Alpha virt. eigenvalues --    0.04501   0.04501   0.08274   0.08274   0.08315

 Mulliken charges and spin densities:
               1          2
     1  Sc   0.089843   0.000000
     2  H   -0.089843   0.000000
 Sum of Mulliken charges =  -0.00000   0.00000

 Dipole moment (field-independent basis, Debye):
    X=              0.0000    Y=             -0.0000    Z=              0.9171  Tot=              0.9171
 Quadrupole moment (field-independent basis, Debye-Ang):
   XX=            -24.0829   YY=            -24.0829   ZZ=            -22.6249
   XY=              0.0000   XZ=              0.0000   YZ=              0.0000

  ROCCSD(T)=(maxcyc=150, FrzINGC)/Gen 5d 7f SCF=(maxcycles=300) Integra
 MP2-0=-764.0567775\MP4SDQ=-764.0752838\CCSD=-764.0751734\CCSD(T)=-764.
 Normal termination of Gaussian 16 at Tue Feb 13 17:37:11 2018.
