 Gaussian 16, Revision A.03,
 Gaussian 16:  ES64L-G16RevA.03 25-Dec-2016

 ----------------------------------------------------------------------
 #P ROCCSD(T)=(maxcyc=150, Full, SaveAmplitudes, ReadAmplitudes)/Gen 5d
  7f SCF=(maxcycles=300) Integral(NoXCTest, DKHSO) MaxDisk=500GB Pop=Re
 gular Guess=Read IOp(5/15=2)
 ----------------------------------------------------------------------

 ---
 ScO
 ---
 Symbolic Z-matrix:
 Charge =  0 Multiplicity = 2

                         Standard orientation:
 ---------------------------------------------------------------------
 Center     Atomic      Atomic             Coordinates (Angstroms)
 Number     Number       Type             X           Y           Z
 ---------------------------------------------------------------------
      1         21           0        0.000000    0.000000    0.496552
      2          8           0        0.000000    0.000000   -1.303448
 ---------------------------------------------------------------------

 SCF Done:  E(ROHF) =  -838.258048155     A.U. after   16 cycles
 E2 =    -0.1087715347D+01 EUMP2 =    -0.83934576350204D+03
 CCSD(T)
 CCSD(T)= -0.83937037053D+03

 The electronic state is 2-SG.
 Alpha  occ. eigenvalues -- -166.91214 -20.47810 -19.36421 -15.78637 -15.78637
 Alpha  occ. eigenvalues --  -15.78499  -2.67762  -1.66890  -1.65814  -1.65814
 Alpha  occ. eigenvalues --   -1.10661  -0.41507  -0.38487  -0.38487  -0.26444
 Alpha virt. eigenvalues --   -0.00433  -0.00433   0.01195   0.02120   0.03291
 Alpha virt. eigenvalues --    0.03291   0.03490   0.03490   0.04254   0.04254
 Alpha virt. eigenvalues --    0.04417   0.05008   0.07179   0.07179   0.10232

 Mulliken charges and spin densities:
               1          2
     1  Sc   1.247657   0.976416
     2  O   -1.247657   0.023584
 Sum of Mulliken charges =  -0.00000   1.00000

 Dipole moment (field-independent basis, Debye):
    X=              0.0000    Y=              0.0000    Z=              5.7910  Tot=              5.7910
 Quadrupole moment (field-independent basis, Debye-Ang):
   XX=            -22.3820   YY=            -22.3820   ZZ=            -33.9047
   XY=              0.0000   XZ=              0.0000   YZ=              0.0000

 \\#P ROCCSD(T)=(maxcyc=150, Full, SaveAmplitudes, ReadAmplitudes)/Gen
 08\CCSD=-839.3261283\CCSD(T)=-839.3703705\RMSD=2.340e-09\PG=C*V [C*(O1
 Normal termination of Gaussian 16 at Tue Feb 20 19:59:38 2018.
