 Gaussian 16, Revision A.03,
 Gaussian 16:  ES64L-G16RevA.03 25-Dec-2016

 ----------------------------------------------------------------------
 #P ROCCSD(T)=(maxcyc=150, Full, SaveAmplitudes, ReadAmplitudes)/Gen 5d
  7f SCF=(maxcycles=300) Integral(NoXCTest) MaxDisk=500GB Pop=Regular P
 seudo=Read Guess=Read
 ----------------------------------------------------------------------

 ---
 MnO
 ---
 Symbolic Z-matrix:
 Charge =  0 Multiplicity = 6

                         Standard orientation:
 ---------------------------------------------------------------------
 Center     Atomic      Atomic             Coordinates (Angstroms)
 Number     Number       Type             X           Y           Z
 ---------------------------------------------------------------------
      1         25           0        0.000000    0.000000    0.315152
      2          8           0        0.000000    0.000000   -0.984848
 ---------------------------------------------------------------------

 SCF Done:  E(ROHF) =  -119.019010769     A.U. after   22 cycles
 E2 =    -0.9723762478D+00 EUMP2 =    -0.11999138701724D+03
 CCSD(T)
 CCSD(T)= -0.11999582723D+03

 The electronic state is 6-SG.
 Alpha  occ. eigenvalues --   -4.21537  -2.76710  -2.76648  -2.76648  -1.27575
 Alpha  occ. eigenvalues --   -0.73430  -0.73430  -0.61407  -0.61407  -0.60113
 Alpha  occ. eigenvalues --   -0.40694  -0.40694  -0.30060
 Alpha virt. eigenvalues --    0.01815   0.02213   0.02213   0.02925   0.05368
 Alpha virt. eigenvalues --    0.05973   0.05973   0.05978   0.05978   0.07528
 Alpha virt. eigenvalues --    0.07528   0.07795   0.11225   0.14804   0.18087

 Mulliken charges and spin densities:
               1          2
     1  Mn   1.113854   4.746055
     2  O   -1.113854   0.253945
 Sum of Mulliken charges =  -0.00000   5.00000

 Dipole moment (field-independent basis, Debye):
    X=              0.0000    Y=              0.0000    Z=              2.7028  Tot=              2.7028
 Quadrupole moment (field-independent basis, Debye-Ang):
   XX=            -19.8679   YY=            -19.8679   ZZ=            -22.9400
   XY=              0.0000   XZ=              0.0000   YZ=              0.0000

 \\#P ROCCSD(T)=(maxcyc=150, Full, SaveAmplitudes, ReadAmplitudes)/Gen
 .0190108\PMP2-0=-119.991387\CCSD=-119.9545016\CCSD(T)=-119.9958272\RMS
 Normal termination of Gaussian 16 at Wed Mar 14 04:35:54 2018.
