 Gaussian 16, Revision A.03,
 Gaussian 16:  ES64L-G16RevA.03 25-Dec-2016

 ----------------------------------------------------------------------
 #P ROCCSD(T)=(MaxCyc=150, Full)/Gen SCF=(maxcycle=400) Pseudo=Read Int
 egral(NoXCTest) Pop=Regular MaxDisk=500GB
 ----------------------------------------------------------------------

 ---
 FeO
 ---
 Symbolic Z-matrix:
 Charge =  0 Multiplicity = 5

                         Standard orientation:
 ---------------------------------------------------------------------
 Center     Atomic      Atomic             Coordinates (Angstroms)
 Number     Number       Type             X           Y           Z
 ---------------------------------------------------------------------
      1         26           0        0.000000    0.000000    0.352941
      2          8           0        0.000000    0.000000   -1.147059
 ---------------------------------------------------------------------

 SCF Done:  E(ROHF) =  -138.784413751     A.U. after   31 cycles
 E2 =    -0.1074910567D+01 EUMP2 =    -0.13985932431789D+03
 CCSD(T)
 CCSD(T)= -0.13987680367D+03

 Unable to determine electronic state:  partially filled degenerate orbitals.
 Alpha  occ. eigenvalues --   -4.35432  -2.97879  -2.90721  -2.90721  -1.15777
 Alpha  occ. eigenvalues --   -0.67875  -0.67875  -0.62390  -0.61493  -0.57574
 Alpha  occ. eigenvalues --   -0.36367  -0.36367  -0.35257
 Alpha virt. eigenvalues --   -0.03361   0.01806   0.01806   0.02215   0.03567
 Alpha virt. eigenvalues --    0.06398   0.06398   0.06538   0.06549   0.06630
 Alpha virt. eigenvalues --    0.08150   0.08150   0.12323   0.13896   0.19389

 Mulliken charges and spin densities:
               1          2
     1  Fe   1.161582   3.801746
     2  O   -1.161582   0.198254
 Sum of Mulliken charges =  -0.00000   4.00000

 Dipole moment (field-independent basis, Debye):
    X=              0.0000    Y=              0.0000    Z=              7.7422  Tot=              7.7422
 Quadrupole moment (field-independent basis, Debye-Ang):
   XX=            -18.2112   YY=            -18.2112   ZZ=            -21.2882
   XY=              0.0000   XZ=              0.0000   YZ=              0.0000

 \\#P ROCCSD(T)=(MaxCyc=150, Full)/Gen SCF=(maxcycle=400) Pseudo=Read I
 8823\CCSD=-139.8277586\CCSD(T)=-139.8768037\RMSD=7.711e-09\PG=C*V [C*(
 Normal termination of Gaussian 16 at Sat Mar 24 03:10:02 2018.
