 Gaussian 16, Revision A.03,
 Gaussian 16:  ES64L-G16RevA.03 25-Dec-2016

 ----------------------------------------------------------------------
 #P ROCCSD(T)=(MaxCyc=150, Full)/Gen SCF=(maxcycle=400) Pseudo=Read Int
 egral(NoXCTest) Pop=Regular MaxDisk=500GB
 ----------------------------------------------------------------------

 ---
 FeO
 ---
 Symbolic Z-matrix:
 Charge =  0 Multiplicity = 5

                         Standard orientation:
 ---------------------------------------------------------------------
 Center     Atomic      Atomic             Coordinates (Angstroms)
 Number     Number       Type             X           Y           Z
 ---------------------------------------------------------------------
      1         26           0        0.000000    0.000000    0.352941
      2          8           0        0.000000    0.000000   -1.147059
 ---------------------------------------------------------------------

 SCF Done:  E(ROHF) =  -138.781694582     A.U. after   28 cycles
 E2 =    -0.1027109759D+01 EUMP2 =    -0.13980880434048D+03
 CCSD(T)
 CCSD(T)= -0.13982892758D+03

 Unable to determine electronic state:  partially filled degenerate orbitals.
 Alpha  occ. eigenvalues --   -4.35487  -2.97912  -2.90746  -2.90746  -1.15824
 Alpha  occ. eigenvalues --   -0.67872  -0.67872  -0.62388  -0.61502  -0.57573
 Alpha  occ. eigenvalues --   -0.36362  -0.36362  -0.35270
 Alpha virt. eigenvalues --   -0.03365   0.02104   0.02104   0.02494   0.03980
 Alpha virt. eigenvalues --    0.07618   0.07618   0.09013   0.09749   0.09781
 Alpha virt. eigenvalues --    0.10796   0.10796   0.14416   0.14891   0.25423

 Mulliken charges and spin densities:
               1          2
     1  Fe   1.112691   3.795215
     2  O   -1.112691   0.204785
 Sum of Mulliken charges =  -0.00000   4.00000

 Dipole moment (field-independent basis, Debye):
    X=              0.0000    Y=              0.0000    Z=              7.7523  Tot=              7.7523
 Quadrupole moment (field-independent basis, Debye-Ang):
   XX=            -18.2115   YY=            -18.2115   ZZ=            -21.3098
   XY=              0.0000   XZ=              0.0000   YZ=              0.0000

 \\#P ROCCSD(T)=(MaxCyc=150, Full)/Gen SCF=(maxcycle=400) Pseudo=Read I
 67096\CCSD=-139.782193\CCSD(T)=-139.8289276\RMSD=6.273e-09\PG=C*V [C*(
 Normal termination of Gaussian 16 at Sat Mar 24 01:04:21 2018.
