 Gaussian 16, Revision A.03,
 Gaussian 16:  ES64L-G16RevA.03 25-Dec-2016

 ----------------------------------------------------------------------
 #P ROCCSD(T)=(maxcyc=150, Full, SaveAmplitudes, ReadAmplitudes)/Gen 5d
  7f SCF=(maxcycles=300, VShift=400) Integral(NoXCTest) MaxDisk=500GB P
 op=Full Pseudo=Read Guess=Read IOp(5/15=2)
 ----------------------------------------------------------------------

 ---
 MnO
 ---
 Symbolic Z-matrix:
 Charge =  0 Multiplicity = 6

                         Standard orientation:
 ---------------------------------------------------------------------
 Center     Atomic      Atomic             Coordinates (Angstroms)
 Number     Number       Type             X           Y           Z
 ---------------------------------------------------------------------
      1         25           0        0.000000    0.000000    0.460606
      2          8           0        0.000000    0.000000   -1.439394
 ---------------------------------------------------------------------

 SCF Done:  E(ROHF) =  -119.338204792     A.U. after   64 cycles
 E2 =    -0.8885877711D+00 EUMP2 =    -0.12022679256328D+03
 CCSD(T)
 CCSD(T)= -0.12025420487D+03

 The electronic state is 6-SG.
 Alpha  occ. eigenvalues --   -4.18874  -2.78010  -2.78010  -2.77583  -1.10520
 Alpha  occ. eigenvalues --   -0.66702  -0.66702  -0.66576  -0.66576  -0.64141
 Alpha  occ. eigenvalues --   -0.35048  -0.35048  -0.32294
 Alpha virt. eigenvalues --   -0.05165   0.01335   0.01335   0.01661   0.03796
 Alpha virt. eigenvalues --    0.06299   0.06299   0.08240   0.08320   0.08320
 Alpha virt. eigenvalues --    0.09317   0.09317   0.12693   0.13887   0.22606

 Mulliken charges and spin densities:
               1          2
     1  Mn   1.053335   4.955984
     2  O   -1.053335   0.044016
 Sum of Mulliken charges =  -0.00000   5.00000

 Dipole moment (field-independent basis, Debye):
    X=              0.0000    Y=              0.0000    Z=              9.1390  Tot=              9.1390
 Quadrupole moment (field-independent basis, Debye-Ang):
   XX=            -19.2556   YY=            -19.2556   ZZ=            -25.1167
   XY=              0.0000   XZ=              0.0000   YZ=              0.0000

 \\#P ROCCSD(T)=(maxcyc=150, Full, SaveAmplitudes, ReadAmplitudes)/Gen
 4SDQ=-120.2218139\CCSD=-120.2149098\CCSD(T)=-120.2542049\RMSD=4.640e-0
 Normal termination of Gaussian 16 at Sun Mar 18 19:07:01 2018.
