 Gaussian 16, Revision A.03,
 Gaussian 16:  ES64L-G16RevA.03 25-Dec-2016

 ----------------------------------------------------------------------
 #P ROCCSD(T)=(maxcyc=150, Full)/Gen 5d 7f SCF=(maxcycles=300) Integral
 (NoXCTest) MaxDisk=500GB Pop=Regular Pseudo=Read
 ----------------------------------------------------------------------

 ---
 ScH
 ---
 Symbolic Z-matrix:
 Charge =  0 Multiplicity = 1

                         Standard orientation:
 ---------------------------------------------------------------------
 Center     Atomic      Atomic             Coordinates (Angstroms)
 Number     Number       Type             X           Y           Z
 ---------------------------------------------------------------------
      1         21           0        0.000000    0.000000    0.059091
      2          1           0        0.000000    0.000000   -1.240909
 ---------------------------------------------------------------------

 SCF Done:  E(ROHF) =  -46.5909202932     A.U. after   12 cycles
 E2 =    -0.4162683409D+00 EUMP2 =    -0.47007188634047D+02
 CCSD(T)
 CCSD(T)= -0.47047595674D+02

 The electronic state is 1-SG.
 Alpha  occ. eigenvalues --   -2.62721  -1.63416  -1.60503  -1.60503  -0.46200
 Alpha  occ. eigenvalues --   -0.21671
 Alpha virt. eigenvalues --    0.01353   0.01353   0.01545   0.02201   0.03482
 Alpha virt. eigenvalues --    0.03912   0.03912   0.03935   0.03935   0.04884
 Alpha virt. eigenvalues --    0.04884   0.04963   0.09277   0.10298   0.10298

 Mulliken charges and spin densities:
               1          2
     1  Sc   0.475120  -0.000000
     2  H   -0.475120  -0.000000
 Sum of Mulliken charges =   0.00000  -0.00000

 Dipole moment (field-independent basis, Debye):
    X=              0.0000    Y=              0.0000    Z=              0.6726  Tot=              0.6726
 Quadrupole moment (field-independent basis, Debye-Ang):
   XX=            -23.5886   YY=            -23.5886   ZZ=            -23.1447
   XY=              0.0000   XZ=              0.0000   YZ=              0.0000

 P ROCCSD(T)=(maxcyc=150, Full)/Gen 5d 7f SCF=(maxcycles=300) Integral(
 DQ=-47.0305132\CCSD=-47.0299259\CCSD(T)=-47.0475957\RMSD=3.259e-09\PG=
 Normal termination of Gaussian 16 at Mon Feb 12 20:02:44 2018.
