 Gaussian 16, Revision A.03,
 Gaussian 16:  ES64L-G16RevA.03 25-Dec-2016

 ----------------------------------------------------------------------
 #P ROCCSD(T)=(maxcyc=150, Full, SaveAmplitudes, ReadAmplitudes)/Gen 5d
  7f SCF=(maxcycles=300) Integral(NoXCTest) MaxDisk=500GB Pop=Regular P
 seudo=Read Guess=Read
 ----------------------------------------------------------------------

 ---
 CrH
 ---
 Symbolic Z-matrix:
 Charge =  0 Multiplicity = 6

                         Standard orientation:
 ---------------------------------------------------------------------
 Center     Atomic      Atomic             Coordinates (Angstroms)
 Number     Number       Type             X           Y           Z
 ---------------------------------------------------------------------
      1         24           0        0.000000    0.000000    0.048000
      2          1           0        0.000000    0.000000   -1.152000
 ---------------------------------------------------------------------

 SCF Done:  E(ROHF) =  -86.7793560981     A.U. after   34 cycles
 E2 =    -0.6242452153D+00 EUMP2 =    -0.87403601313354D+02
 CCSD(T)
 CCSD(T)= -0.87426045995D+02

 The electronic state is 6-SG.
 Alpha  occ. eigenvalues --   -3.58760  -2.34801  -2.34801  -2.33493  -0.46417
 Alpha  occ. eigenvalues --   -0.45600  -0.45600  -0.42724  -0.42724  -0.25154
 Alpha virt. eigenvalues --    0.01656   0.01656   0.01719   0.02246   0.04665
 Alpha virt. eigenvalues --    0.05481   0.05481   0.05486   0.05486   0.05763
 Alpha virt. eigenvalues --    0.05763   0.06108   0.09418   0.13200   0.16878

 Mulliken charges and spin densities:
               1          2
     1  Cr   0.398830   4.995192
     2  H   -0.398830   0.004808
 Sum of Mulliken charges =  -0.00000   5.00000

 Dipole moment (field-independent basis, Debye):
    X=              0.0000    Y=              0.0000    Z=              1.9583  Tot=              1.9583
 Quadrupole moment (field-independent basis, Debye-Ang):
   XX=            -16.5676   YY=            -16.5676   ZZ=            -18.8056
   XY=              0.0000   XZ=              0.0000   YZ=              0.0000

 \\#P ROCCSD(T)=(maxcyc=150, Full, SaveAmplitudes, ReadAmplitudes)/Gen
 793561\PMP2-0=-87.4036013\CCSD=-87.4039422\CCSD(T)=-87.426046\RMSD=2.4
 Normal termination of Gaussian 16 at Sun Feb 25 21:16:37 2018.
