 Gaussian 16, Revision A.03,
 Gaussian 16:  ES64L-G16RevA.03 25-Dec-2016

 ----------------------------------------------------------------------
 #P ROCCSD(T)=(MaxCyc=150, Full)/Gen SCF=(maxcycle=400) Pseudo=Read Int
 egral(NoXCTest) Pop=Regular MaxDisk=500GB Guess=Read IOp(5/15=2)
 ----------------------------------------------------------------------

 ---
 CuO
 ---
 Symbolic Z-matrix:
 Charge =  0 Multiplicity = 2

                         Standard orientation:
 ---------------------------------------------------------------------
 Center     Atomic      Atomic             Coordinates (Angstroms)
 Number     Number       Type             X           Y           Z
 ---------------------------------------------------------------------
      1         29           0        0.000000    0.000000    0.367568
      2          8           0        0.000000    0.000000   -1.332432
 ---------------------------------------------------------------------

 SCF Done:  E(ROHF) =  -212.238221162     A.U. after   18 cycles
 E2 =    -0.1337844173D+01 EUMP2 =    -0.21357606533507D+03
 CCSD(T)
 CCSD(T)= -0.21351043954D+03

 Unable to determine electronic state:  an orbital has unidentified symmetry.
 Alpha  occ. eigenvalues --   -5.27645  -3.54705  -3.54291  -3.54000  -1.23339
 Alpha  occ. eigenvalues --   -0.58380  -0.55208  -0.54751  -0.52185  -0.52184
 Alpha  occ. eigenvalues --   -0.47792  -0.41837  -0.40175
 Alpha virt. eigenvalues --   -0.01172   0.02553   0.02685   0.03540   0.04458
 Alpha virt. eigenvalues --    0.08905   0.09176   0.11749   0.13400   0.13407
 Alpha virt. eigenvalues --    0.14450   0.14510   0.14972   0.19015   0.21400

 Mulliken charges and spin densities:
               1          2
     1  Cu   0.726893   0.021694
     2  O   -0.726893   0.978306
 Sum of Mulliken charges =  -0.00000   1.00000

 Dipole moment (field-independent basis, Debye):
    X=              0.0000    Y=              0.0000    Z=              5.6301  Tot=              5.6301
 Quadrupole moment (field-independent basis, Debye-Ang):
   XX=            -15.6676   YY=            -17.2092   ZZ=            -20.2339
   XY=              0.0000   XZ=              0.0000   YZ=              0.0000

 \\#P ROCCSD(T)=(MaxCyc=150, Full)/Gen SCF=(maxcycle=400) Pseudo=Read I
 .5760653\MP4SDQ=-213.5336643\CCSD=-213.4620389\CCSD(T)=-213.5104395\RM
 Normal termination of Gaussian 16 at Mon Mar 26 13:05:21 2018.
