 Gaussian 16, Revision A.03,
 Gaussian 16:  ES64L-G16RevA.03 25-Dec-2016

 ----------------------------------------------------------------------
 #P ROCCSD(T)=(MaxCyc=150, Full)/Gen SCF=(maxcycle=400) Pseudo=Read Int
 egral(NoXCTest) Pop=Regular MaxDisk=500GB Guess=Read IOp(5/15=2)
 ----------------------------------------------------------------------

 ---
 CuO
 ---
 Symbolic Z-matrix:
 Charge =  0 Multiplicity = 2

                         Standard orientation:
 ---------------------------------------------------------------------
 Center     Atomic      Atomic             Coordinates (Angstroms)
 Number     Number       Type             X           Y           Z
 ---------------------------------------------------------------------
      1         29           0        0.000000    0.000000    0.367568
      2          8           0        0.000000    0.000000   -1.332432
 ---------------------------------------------------------------------

 SCF Done:  E(ROHF) =  -212.223268591     A.U. after   17 cycles
 E2 =    -0.1274069192D+01 EUMP2 =    -0.21349733778335D+03
 CCSD(T)
 CCSD(T)= -0.21343449090D+03

 Unable to determine electronic state:  an orbital has unidentified symmetry.
 Alpha  occ. eigenvalues --   -5.27929  -3.54902  -3.54479  -3.54185  -1.23375
 Alpha  occ. eigenvalues --   -0.58380  -0.55202  -0.54762  -0.52169  -0.52167
 Alpha  occ. eigenvalues --   -0.47788  -0.41841  -0.40185
 Alpha virt. eigenvalues --   -0.01171   0.02866   0.03028   0.04008   0.04680
 Alpha virt. eigenvalues --    0.10395   0.10746   0.13667   0.19429   0.19583
 Alpha virt. eigenvalues --    0.19611   0.20824   0.21629   0.22697   0.26056

 Mulliken charges and spin densities:
               1          2
     1  Cu   0.834352   0.021069
     2  O   -0.834352   0.978931
 Sum of Mulliken charges =  -0.00000   1.00000

 Dipole moment (field-independent basis, Debye):
    X=              0.0000    Y=              0.0000    Z=              5.6438  Tot=              5.6438
 Quadrupole moment (field-independent basis, Debye-Ang):
   XX=            -15.6782   YY=            -17.2360   ZZ=            -20.2167
   XY=              0.0000   XZ=              0.0000   YZ=              0.0000

 \\#P ROCCSD(T)=(MaxCyc=150, Full)/Gen SCF=(maxcycle=400) Pseudo=Read I
 .4973378\MP4SDQ=-213.4608278\CCSD=-213.3885559\CCSD(T)=-213.4344909\RM
 Normal termination of Gaussian 16 at Mon Mar 26 10:30:59 2018.
