 Gaussian 16, Revision A.03,
 Gaussian 16:  ES64L-G16RevA.03 25-Dec-2016

 ----------------------------------------------------------------------
 #P ROCCSD(T)=(maxcyc=150, Full, SaveAmplitudes, ReadAmplitudes)/Gen 5d
  7f SCF=(maxcycles=300) Integral(NoXCTest) MaxDisk=500GB Pop=Regular P
 seudo=Read Guess=Read
 ----------------------------------------------------------------------

 ---
 MnO
 ---
 Symbolic Z-matrix:
 Charge =  0 Multiplicity = 6

                         Standard orientation:
 ---------------------------------------------------------------------
 Center     Atomic      Atomic             Coordinates (Angstroms)
 Number     Number       Type             X           Y           Z
 ---------------------------------------------------------------------
      1         25           0        0.000000    0.000000    0.315152
      2          8           0        0.000000    0.000000   -0.984848
 ---------------------------------------------------------------------

 SCF Done:  E(ROHF) =  -119.014226190     A.U. after   22 cycles
 E2 =    -0.9724069939D+00 EUMP2 =    -0.11998663318424D+03
 CCSD(T)
 CCSD(T)= -0.11999148302D+03

 The electronic state is 6-SG.
 Alpha  occ. eigenvalues --   -4.13687  -2.77863  -2.77863  -2.77833  -1.27670
 Alpha  occ. eigenvalues --   -0.73396  -0.73396  -0.61353  -0.61353  -0.60182
 Alpha  occ. eigenvalues --   -0.40659  -0.40659  -0.30137
 Alpha virt. eigenvalues --    0.01808   0.02217   0.02217   0.02925   0.05361
 Alpha virt. eigenvalues --    0.05974   0.05974   0.05980   0.05980   0.07537
 Alpha virt. eigenvalues --    0.07537   0.07762   0.11219   0.14780   0.18080

 Mulliken charges and spin densities:
               1          2
     1  Mn   1.013106   4.729908
     2  O   -1.013106   0.270092
 Sum of Mulliken charges =  -0.00000   5.00000

 Dipole moment (field-independent basis, Debye):
    X=              0.0000    Y=              0.0000    Z=              2.7064  Tot=              2.7064
 Quadrupole moment (field-independent basis, Debye-Ang):
   XX=            -19.8470   YY=            -19.8470   ZZ=            -22.8930
   XY=              0.0000   XZ=              0.0000   YZ=              0.0000

 \\#P ROCCSD(T)=(maxcyc=150, Full, SaveAmplitudes, ReadAmplitudes)/Gen
 9.0142262\PMP2-0=-119.9866332\CCSD=-119.9502457\CCSD(T)=-119.991483\RM
 Normal termination of Gaussian 16 at Sat Mar 10 06:42:42 2018.
