 Gaussian 16, Revision A.03,
 Gaussian 16:  ES64L-G16RevA.03 25-Dec-2016

 ----------------------------------------------------------------------
 #P ROCCSD(T)=(maxcyc=150, Full)/Gen 5d 7f SCF=(maxcycles=300) Integral
 (NoXCTest) MaxDisk=500GB Pop=Regular Pseudo=Read Guess=Read
 ----------------------------------------------------------------------

 ---
 MnH
 ---
 Symbolic Z-matrix:
 Charge =  0 Multiplicity = 7

                         Standard orientation:
 ---------------------------------------------------------------------
 Center     Atomic      Atomic             Coordinates (Angstroms)
 Number     Number       Type             X           Y           Z
 ---------------------------------------------------------------------
      1         25           0        0.000000    0.000000    0.073077
      2          1           0        0.000000    0.000000   -1.826923
 ---------------------------------------------------------------------

 SCF Done:  E(ROHF) =  -104.060335783     A.U. after   20 cycles
 E2 =    -0.5920843957D+00 EUMP2 =    -0.10465242017882D+03
 CCSD(T)
 CCSD(T)= -0.10467533582D+03

 The electronic state is 7-SG.
 Alpha  occ. eigenvalues --   -4.17180  -2.81921  -2.81921  -2.81647  -0.65320
 Alpha  occ. eigenvalues --   -0.65320  -0.64671  -0.64613  -0.64613  -0.39436
 Alpha  occ. eigenvalues --   -0.26791
 Alpha virt. eigenvalues --    0.01034   0.01034   0.02171   0.02888   0.04912
 Alpha virt. eigenvalues --    0.04912   0.05606   0.05774   0.05774   0.06197
 Alpha virt. eigenvalues --    0.06197   0.09437   0.12611   0.13814   0.18027

 Mulliken charges and spin densities:
               1          2
     1  Mn   0.373671   5.953588
     2  H   -0.373671   0.046412
 Sum of Mulliken charges =  -0.00000   6.00000

 Dipole moment (field-independent basis, Debye):
    X=              0.0000    Y=              0.0000    Z=              2.0271  Tot=              2.0271
 Quadrupole moment (field-independent basis, Debye-Ang):
   XX=            -16.3518   YY=            -16.3518   ZZ=            -27.3933
   XY=              0.0000   XZ=              0.0000   YZ=              0.0000

 \\#P ROCCSD(T)=(maxcyc=150, Full)/Gen 5d 7f SCF=(maxcycles=300) Integr
 0=-104.6524202\MP4SDQ=-104.6580024\CCSD=-104.6591714\CCSD(T)=-104.6753
 Normal termination of Gaussian 16 at Tue Feb 13 11:53:27 2018.
