 Gaussian 16, Revision A.03,
 Gaussian 16:  ES64L-G16RevA.03 25-Dec-2016

 ----------------------------------------------------------------------
 #P ROCCSD(T)=(maxcyc=150, Full)/Gen 5d 7f SCF=(maxcycles=300) Integral
 (NoXCTest) MaxDisk=500GB Pop=Regular Pseudo=Read IOp(5/15=2) Guess=Rea
 d
 ----------------------------------------------------------------------

 ---
 ScH
 ---
 Symbolic Z-matrix:
 Charge =  0 Multiplicity = 1

                         Standard orientation:
 ---------------------------------------------------------------------
 Center     Atomic      Atomic             Coordinates (Angstroms)
 Number     Number       Type             X           Y           Z
 ---------------------------------------------------------------------
      1         21           0        0.000000    0.000000    0.063636
      2          1           0        0.000000    0.000000   -1.336364
 ---------------------------------------------------------------------

 SCF Done:  E(ROHF) =  -46.7580879138     A.U. after   11 cycles
 E2 =    -0.4139734834D+00 EUMP2 =    -0.47172061397182D+02
 CCSD(T)
 CCSD(T)= -0.47213087456D+02

 The electronic state is 1-SG.
 Alpha  occ. eigenvalues --   -2.68236  -1.63599  -1.61840  -1.61840  -0.45219
 Alpha  occ. eigenvalues --   -0.22053
 Alpha virt. eigenvalues --    0.01349   0.01349   0.01636   0.02168   0.03499
 Alpha virt. eigenvalues --    0.03917   0.03917   0.03922   0.03922   0.04855
 Alpha virt. eigenvalues --    0.04855   0.05064   0.09280   0.10011   0.10011

 Mulliken charges and spin densities:
               1          2
     1  Sc   0.448105   0.000000
     2  H   -0.448105   0.000000
 Sum of Mulliken charges =  -0.00000   0.00000

 Dipole moment (field-independent basis, Debye):
    X=              0.0000    Y=              0.0000    Z=              0.6670  Tot=              0.6670
 Quadrupole moment (field-independent basis, Debye-Ang):
   XX=            -23.3034   YY=            -23.3034   ZZ=            -23.7039
   XY=              0.0000   XZ=              0.0000   YZ=              0.0000

 P ROCCSD(T)=(maxcyc=150, Full)/Gen 5d 7f SCF=(maxcycles=300) Integral(
 PMP2-0=-47.1720614\MP4SDQ=-47.1959784\CCSD=-47.1953986\CCSD(T)=-47.213
 Normal termination of Gaussian 16 at Tue Feb 13 22:25:24 2018.
