 Gaussian 16, Revision A.03,
 Gaussian 16:  ES64L-G16RevA.03 25-Dec-2016

 ----------------------------------------------------------------------
 #P ROCCSD(T)=(maxcyc=150, Full, SaveAmplitudes, ReadAmplitudes)/Gen 5d
  7f SCF=(maxcycles=300) Integral(NoXCTest) MaxDisk=500GB Pop=Regular P
 seudo=Read Guess=Read
 ----------------------------------------------------------------------

 ---
 CrO
 ---
 Symbolic Z-matrix:
 Charge =  0 Multiplicity = 5

                         Standard orientation:
 ---------------------------------------------------------------------
 Center     Atomic      Atomic             Coordinates (Angstroms)
 Number     Number       Type             X           Y           Z
 ---------------------------------------------------------------------
      1         24           0        0.000000    0.000000    0.325000
      2          8           0        0.000000    0.000000   -0.975000
 ---------------------------------------------------------------------

 SCF Done:  E(ROHF) =  -101.764619567     A.U. after   22 cycles
 E2 =    -0.9193894364D+00 EUMP2 =    -0.10268400900335D+03
 CCSD(T)
 CCSD(T)= -0.10269361392D+03

 Unable to determine electronic state:  an orbital has unidentified symmetry.
 Alpha  occ. eigenvalues --   -3.74928  -2.48553  -2.47354  -2.44333  -1.25465
 Alpha  occ. eigenvalues --   -0.69108  -0.60057  -0.59676  -0.51504  -0.51126
 Alpha  occ. eigenvalues --   -0.35470  -0.27019
 Alpha virt. eigenvalues --    0.01285   0.01968   0.02280   0.02635   0.04753
 Alpha virt. eigenvalues --    0.05016   0.05419   0.05419   0.05516   0.05686
 Alpha virt. eigenvalues --    0.07582   0.08067   0.10347   0.13864   0.14731

 Mulliken charges and spin densities:
               1          2
     1  Cr   0.915419   3.874860
     2  O   -0.915419   0.125140
 Sum of Mulliken charges =  -0.00000   4.00000

 Dipole moment (field-independent basis, Debye):
    X=              0.0000    Y=              0.0000    Z=              1.7178  Tot=              1.7178
 Quadrupole moment (field-independent basis, Debye-Ang):
   XX=            -21.5066   YY=            -19.8238   ZZ=            -23.6718
   XY=              0.0000   XZ=              0.0000   YZ=              0.0000

 \\#P ROCCSD(T)=(maxcyc=150, Full, SaveAmplitudes, ReadAmplitudes)/Gen
 P2-0=-102.684009\CCSD=-102.6500069\CCSD(T)=-102.6936139\RMSD=7.358e-09
 Normal termination of Gaussian 16 at Tue Mar 13 04:31:49 2018.
