 Gaussian 16, Revision A.03,
 Gaussian 16:  ES64L-G16RevA.03 25-Dec-2016

 ----------------------------------------------------------------------
 #P ROCCSD(T)=(maxcyc=150, Full, SaveAmplitudes, ReadAmplitudes)/Gen 5d
  7f SCF=(maxcycles=300) Integral(NoXCTest) MaxDisk=500GB Pop=Regular P
 seudo=Read Guess=Read IOp(5/15=2)
 ----------------------------------------------------------------------

 ---
 CrO
 ---
 Symbolic Z-matrix:
 Charge =  0 Multiplicity = 5

                         Standard orientation:
 ---------------------------------------------------------------------
 Center     Atomic      Atomic             Coordinates (Angstroms)
 Number     Number       Type             X           Y           Z
 ---------------------------------------------------------------------
      1         24           0        0.000000    0.000000    0.425000
      2          8           0        0.000000    0.000000   -1.275000
 ---------------------------------------------------------------------

 SCF Done:  E(ROHF) =  -102.001938465     A.U. after   47 cycles
 E2 =    -0.8646108706D+00 EUMP2 =    -0.10286654933570D+03
 CCSD(T)
 CCSD(T)= -0.10291168815D+03

 Unable to determine electronic state:  an orbital has unidentified symmetry.
 Alpha  occ. eigenvalues --   -3.75964  -2.47444  -2.42731  -2.41603  -1.12060
 Alpha  occ. eigenvalues --   -0.56379  -0.56243  -0.54509  -0.49893  -0.36714
 Alpha  occ. eigenvalues --   -0.34017  -0.32950
 Alpha virt. eigenvalues --   -0.03359   0.00916   0.01582   0.02222   0.03722
 Alpha virt. eigenvalues --    0.05129   0.06387   0.07509   0.07525   0.07687
 Alpha virt. eigenvalues --    0.08324   0.08796   0.13258   0.14757   0.15614

 Mulliken charges and spin densities:
               1          2
     1  Cr   1.173770   3.905118
     2  O   -1.173770   0.094882
 Sum of Mulliken charges =  -0.00000   4.00000

 Dipole moment (field-independent basis, Debye):
    X=              0.0000    Y=              0.0000    Z=              8.8253  Tot=              8.8253
 Quadrupole moment (field-independent basis, Debye-Ang):
   XX=            -19.6620   YY=            -18.6569   ZZ=            -23.1020
   XY=              0.0000   XZ=              0.0000   YZ=              0.0000

 \\#P ROCCSD(T)=(maxcyc=150, Full, SaveAmplitudes, ReadAmplitudes)/Gen
 SD=-102.86143\CCSD(T)=-102.9116881\RMSD=8.238e-09\PG=C*V [C*(O1Cr1)]\\
 Normal termination of Gaussian 16 at Tue Mar 13 06:22:59 2018.
