 Gaussian 16, Revision A.03,
 Gaussian 16:  ES64L-G16RevA.03 25-Dec-2016

 ----------------------------------------------------------------------
 #P ROCCSD(T)=(maxcyc=150, Full, SaveAmplitudes, ReadAmplitudes)/Gen 5d
  7f SCF=(maxcycles=300, VShift=400) Integral(NoXCTest) MaxDisk=500GB P
 op=Full Pseudo=Read Guess=Read IOp(5/15=2)
 ----------------------------------------------------------------------

 ---
 CrO
 ---
 Symbolic Z-matrix:
 Charge =  0 Multiplicity = 5

                         Standard orientation:
 ---------------------------------------------------------------------
 Center     Atomic      Atomic             Coordinates (Angstroms)
 Number     Number       Type             X           Y           Z
 ---------------------------------------------------------------------
      1         24           0        0.000000    0.000000    0.375000
      2          8           0        0.000000    0.000000   -1.125000
 ---------------------------------------------------------------------

 SCF Done:  E(ROHF) =  -102.129903900     A.U. after   41 cycles
 E2 =    -0.8834320708D+00 EUMP2 =    -0.10301333597126D+03
 CCSD(T)
 CCSD(T)= -0.10303561795D+03

 Unable to determine electronic state:  an orbital has unidentified symmetry.
 Alpha  occ. eigenvalues --   -3.78104  -2.49047  -2.44895  -2.42334  -1.20978
 Alpha  occ. eigenvalues --   -0.63991  -0.58236  -0.56845  -0.50528  -0.47813
 Alpha  occ. eigenvalues --   -0.39931  -0.30069
 Alpha virt. eigenvalues --    0.00852   0.01099   0.01916   0.03223   0.04722
 Alpha virt. eigenvalues --    0.04908   0.06362   0.07617   0.07626   0.08027
 Alpha virt. eigenvalues --    0.08458   0.08512   0.12838   0.14498   0.16820

 Mulliken charges and spin densities:
               1          2
     1  Cr   1.020998   3.831040
     2  O   -1.020998   0.168960
 Sum of Mulliken charges =  -0.00000   4.00000

 Dipole moment (field-independent basis, Debye):
    X=              0.0000    Y=              0.0000    Z=              4.5802  Tot=              4.5802
 Quadrupole moment (field-independent basis, Debye-Ang):
   XX=            -20.6320   YY=            -19.5662   ZZ=            -24.1106
   XY=              0.0000   XZ=              0.0000   YZ=              0.0000

 \\#P ROCCSD(T)=(maxcyc=150, Full, SaveAmplitudes, ReadAmplitudes)/Gen
 7238\CCSD=-102.9873418\CCSD(T)=-103.035618\RMSD=9.742e-09\PG=C*V [C*(O
 Normal termination of Gaussian 16 at Thu Apr  5 03:33:19 2018.
