 Gaussian 16, Revision A.03,
 Gaussian 16:  ES64L-G16RevA.03 25-Dec-2016

 ----------------------------------------------------------------------
 #P ROCCSD(T)=(MaxCyc=150, Full)/Gen SCF=(maxcycle=400, vshift=200) Pse
 udo=Read Integral(NoXCTest) Pop=Regular MaxDisk=500GB Guess=Read IOp(5
 /15=2)
 ----------------------------------------------------------------------

 ---
 FeH
 ---
 Symbolic Z-matrix:
 Charge =  0 Multiplicity = 4

                         Standard orientation:
 ---------------------------------------------------------------------
 Center     Atomic      Atomic             Coordinates (Angstroms)
 Number     Number       Type             X           Y           Z
 ---------------------------------------------------------------------
      1         26           0        0.000000    0.000000    0.062963
      2          1           0        0.000000    0.000000   -1.637037
 ---------------------------------------------------------------------

 SCF Done:  E(ROHF) =  -123.117293581     A.U. after   18 cycles
 E2 =    -0.8110151358D+00 EUMP2 =    -0.12392830871707D+03
 CCSD(T)
 CCSD(T)= -0.12392811393D+03

 Unable to determine electronic state:  an orbital has unidentified symmetry.
 Alpha  occ. eigenvalues --   -4.23648  -2.76846  -2.76428  -2.76428  -0.49216
 Alpha  occ. eigenvalues --   -0.49216  -0.48760  -0.43833  -0.43582  -0.31915
 Alpha virt. eigenvalues --   -0.00679   0.02100   0.02100   0.02680   0.03240
 Alpha virt. eigenvalues --    0.05759   0.06179   0.06190   0.06358   0.06358
 Alpha virt. eigenvalues --    0.07381   0.07381   0.08761   0.12857   0.16278

 Mulliken charges and spin densities:
               1          2
     1  Fe   0.287514   2.996534
     2  H   -0.287514   0.003466
 Sum of Mulliken charges =  -0.00000   3.00000

 Dipole moment (field-independent basis, Debye):
    X=              0.0000    Y=              0.0000    Z=              4.7147  Tot=              4.7147
 Quadrupole moment (field-independent basis, Debye-Ang):
   XX=            -15.4525   YY=            -15.4525   ZZ=            -18.2764
   XY=              0.0000   XZ=              0.0000   YZ=              0.0000

 \\#P ROCCSD(T)=(MaxCyc=150, Full)/Gen SCF=(maxcycle=400, vshift=200) P
 \PMP2-0=-123.9283087\MP4SDQ=-123.9058215\CCSD=-123.8987485\CCSD(T)=-12
 Normal termination of Gaussian 16 at Mon Apr 23 00:03:42 2018.
