 Gaussian 16, Revision A.03,
 Gaussian 16:  ES64L-G16RevA.03 25-Dec-2016

 ----------------------------------------------------------------------
 #P ROCCSD(T)=(MaxCyc=150, Full)/Gen SCF=(maxcycle=400, vshift=200) Pse
 udo=Read Integral(NoXCTest) Pop=Regular MaxDisk=500GB Guess=Read IOp(5
 /15=2)
 ----------------------------------------------------------------------

 ---
 FeH
 ---
 Symbolic Z-matrix:
 Charge =  0 Multiplicity = 4

                         Standard orientation:
 ---------------------------------------------------------------------
 Center     Atomic      Atomic             Coordinates (Angstroms)
 Number     Number       Type             X           Y           Z
 ---------------------------------------------------------------------
      1         26           0        0.000000    0.000000    0.062963
      2          1           0        0.000000    0.000000   -1.637037
 ---------------------------------------------------------------------

 SCF Done:  E(ROHF) =  -123.117086582     A.U. after   29 cycles
 E2 =    -0.7967639917D+00 EUMP2 =    -0.12391385057346D+03
 CCSD(T)
 CCSD(T)= -0.12391572666D+03

 Unable to determine electronic state:  partially filled degenerate orbitals.
 Alpha  occ. eigenvalues --   -4.23651  -2.76850  -2.76432  -2.76432  -0.49219
 Alpha  occ. eigenvalues --   -0.49219  -0.48763  -0.43831  -0.43579  -0.31915
 Alpha virt. eigenvalues --   -0.00657   0.02167   0.02167   0.03016   0.03749
 Alpha virt. eigenvalues --    0.06223   0.06746   0.06760   0.06871   0.06871
 Alpha virt. eigenvalues --    0.07741   0.07741   0.10031   0.16060   0.17848

 Mulliken charges and spin densities:
               1          2
     1  Fe   0.332799   2.997201
     2  H   -0.332799   0.002799
 Sum of Mulliken charges =  -0.00000   3.00000

 Dipole moment (field-independent basis, Debye):
    X=              0.0000    Y=              0.0000    Z=              4.7150  Tot=              4.7150
 Quadrupole moment (field-independent basis, Debye-Ang):
   XX=            -15.4550   YY=            -15.4550   ZZ=            -18.2731
   XY=              0.0000   XZ=              0.0000   YZ=              0.0000

 \\#P ROCCSD(T)=(MaxCyc=150, Full)/Gen SCF=(maxcycle=400, vshift=200) P
 \PMP2-0=-123.9138506\MP4SDQ=-123.8939883\CCSD=-123.8870514\CCSD(T)=-12
 Normal termination of Gaussian 16 at Sun Apr 22 23:19:52 2018.
