 Gaussian 16, Revision A.03,
 Gaussian 16:  ES64L-G16RevA.03 25-Dec-2016

 ----------------------------------------------------------------------
 #P ROCCSD(T)=(MaxCyc=150, Full)/Gen SCF=(maxcycle=400, vshift=200) Pse
 udo=Read Integral(NoXCTest) Pop=Regular MaxDisk=500GB Guess=Read IOp(5
 /15=2)
 ----------------------------------------------------------------------

 ---
 FeH
 ---
 Symbolic Z-matrix:
 Charge =  0 Multiplicity = 4

                         Standard orientation:
 ---------------------------------------------------------------------
 Center     Atomic      Atomic             Coordinates (Angstroms)
 Number     Number       Type             X           Y           Z
 ---------------------------------------------------------------------
      1         26           0        0.000000    0.000000    0.062963
      2          1           0        0.000000    0.000000   -1.637037
 ---------------------------------------------------------------------

 SCF Done:  E(ROHF) =  -123.116010833     A.U. after   31 cycles
 E2 =    -0.7610327946D+00 EUMP2 =    -0.12387704362729D+03
 CCSD(T)
 CCSD(T)= -0.12388103345D+03

 Unable to determine electronic state:  an orbital has unidentified symmetry.
 Alpha  occ. eigenvalues --   -4.23652  -2.76858  -2.76438  -2.76438  -0.49217
 Alpha  occ. eigenvalues --   -0.49217  -0.48760  -0.43826  -0.43573  -0.31912
 Alpha virt. eigenvalues --   -0.00643   0.02406   0.02406   0.03299   0.04025
 Alpha virt. eigenvalues --    0.08444   0.08444   0.09530   0.10163   0.10203
 Alpha virt. eigenvalues --    0.10399   0.10399   0.10896   0.17140   0.23257

 Mulliken charges and spin densities:
               1          2
     1  Fe   0.428315   2.998409
     2  H   -0.428315   0.001591
 Sum of Mulliken charges =  -0.00000   3.00000

 Dipole moment (field-independent basis, Debye):
    X=              0.0000    Y=              0.0000    Z=              4.7207  Tot=              4.7207
 Quadrupole moment (field-independent basis, Debye-Ang):
   XX=            -15.4677   YY=            -15.4677   ZZ=            -18.2624
   XY=              0.0000   XZ=              0.0000   YZ=              0.0000

 \\#P ROCCSD(T)=(MaxCyc=150, Full)/Gen SCF=(maxcycle=400, vshift=200) P
 \PMP2-0=-123.8770436\MP4SDQ=-123.860776\CCSD=-123.8543069\CCSD(T)=-123
 Normal termination of Gaussian 16 at Sun Apr 22 23:02:52 2018.
