 Gaussian 16, Revision A.03,
 Gaussian 16:  ES64L-G16RevA.03 25-Dec-2016

 ----------------------------------------------------------------------
 #P ROCCSD(T)=(maxcyc=150, Full)/Gen 5d 7f SCF=(maxcycles=300) Integral
 (NoXCTest) MaxDisk=500GB Pop=Regular Pseudo=Read IOp(5/15=2) Guess=Rea
 d
 ----------------------------------------------------------------------

 ---
 ScH
 ---
 Symbolic Z-matrix:
 Charge =  0 Multiplicity = 1

                         Standard orientation:
 ---------------------------------------------------------------------
 Center     Atomic      Atomic             Coordinates (Angstroms)
 Number     Number       Type             X           Y           Z
 ---------------------------------------------------------------------
      1         21           0        0.000000    0.000000    0.086364
      2          1           0        0.000000    0.000000   -1.813636
 ---------------------------------------------------------------------

 SCF Done:  E(ROHF) =  -46.7881466015     A.U. after   11 cycles
 E2 =    -0.4238925881D+00 EUMP2 =    -0.47212039189560D+02
 CCSD(T)
 CCSD(T)= -0.47256810975D+02

 The electronic state is 1-SG.
 Alpha  occ. eigenvalues --   -2.76539  -1.67017  -1.67017  -1.66863  -0.39362
 Alpha  occ. eigenvalues --   -0.23594
 Alpha virt. eigenvalues --    0.01020   0.01020   0.01412   0.01981   0.02834
 Alpha virt. eigenvalues --    0.02834   0.02933   0.02933   0.02970   0.03955
 Alpha virt. eigenvalues --    0.03955   0.04068   0.06925   0.06925   0.07607

 Mulliken charges and spin densities:
               1          2
     1  Sc   0.270947   0.000000
     2  H   -0.270947   0.000000
 Sum of Mulliken charges =  -0.00000   0.00000

 Dipole moment (field-independent basis, Debye):
    X=              0.0000    Y=              0.0000    Z=              1.7429  Tot=              1.7429
 Quadrupole moment (field-independent basis, Debye-Ang):
   XX=            -22.9864   YY=            -22.9864   ZZ=            -27.7491
   XY=              0.0000   XZ=              0.0000   YZ=              0.0000

 P ROCCSD(T)=(maxcyc=150, Full)/Gen 5d 7f SCF=(maxcycles=300) Integral(
 PMP2-0=-47.2120392\MP4SDQ=-47.2369233\CCSD=-47.2371604\CCSD(T)=-47.256
 Normal termination of Gaussian 16 at Wed Feb 14 06:52:12 2018.
