 Gaussian 16, Revision A.03,
 Gaussian 16:  ES64L-G16RevA.03 25-Dec-2016

 ----------------------------------------------------------------------
 #P ROCCSD(T)=(maxcyc=150, Full)/Gen 5d 7f SCF=(maxcycles=300) Integral
 (NoXCTest) MaxDisk=500GB Pop=Regular Pseudo=Read IOp(5/15=2) Guess=Rea
 d
 ----------------------------------------------------------------------

 ---
 ScH
 ---
 Symbolic Z-matrix:
 Charge =  0 Multiplicity = 1

                         Standard orientation:
 ---------------------------------------------------------------------
 Center     Atomic      Atomic             Coordinates (Angstroms)
 Number     Number       Type             X           Y           Z
 ---------------------------------------------------------------------
      1         21           0        0.000000    0.000000    0.095455
      2          1           0        0.000000    0.000000   -2.004545
 ---------------------------------------------------------------------

 SCF Done:  E(ROHF) =  -46.7832414905     A.U. after   12 cycles
 E2 =    -0.4037671613D+00 EUMP2 =    -0.47187008651856D+02
 CCSD(T)
 CCSD(T)= -0.47235494722D+02

 The electronic state is 1-SG.
 Alpha  occ. eigenvalues --   -2.75776  -1.69044  -1.69044  -1.68830  -0.36863
 Alpha  occ. eigenvalues --   -0.24410
 Alpha virt. eigenvalues --    0.00969   0.00969   0.01229   0.02294   0.03597
 Alpha virt. eigenvalues --    0.03752   0.03752   0.03947   0.03947   0.04245
 Alpha virt. eigenvalues --    0.04288   0.04288   0.07179   0.07179   0.08277

 Mulliken charges and spin densities:
               1          2
     1  Sc   0.306337   0.000000
     2  H   -0.306337   0.000000
 Sum of Mulliken charges =  -0.00000   0.00000

 Dipole moment (field-independent basis, Debye):
    X=              0.0000    Y=              0.0000    Z=              2.5629  Tot=              2.5629
 Quadrupole moment (field-independent basis, Debye-Ang):
   XX=            -22.7493   YY=            -22.7493   ZZ=            -29.1598
   XY=              0.0000   XZ=              0.0000   YZ=              0.0000

 P ROCCSD(T)=(maxcyc=150, Full)/Gen 5d 7f SCF=(maxcycles=300) Integral(
 PMP2-0=-47.1870087\MP4SDQ=-47.2158786\CCSD=-47.2162843\CCSD(T)=-47.235
 Normal termination of Gaussian 16 at Wed Feb 14 10:16:25 2018.
