 Gaussian 16, Revision A.03,
 Gaussian 16:  ES64L-G16RevA.03 25-Dec-2016

 ----------------------------------------------------------------------
 #P ROCCSD(T)=(maxcyc=150, Window=(7,0), SaveAmplitudes, ReadAmplitudes
 )/Gen 5d 7f SCF=(maxcycles=300) Integral(NoXCTest, DKHSO) MaxDisk=500G
 B Pop=Regular Guess=Read IOp(5/15=2)
 ----------------------------------------------------------------------

 ---
 MnO
 ---
 Symbolic Z-matrix:
 Charge =  0 Multiplicity = 6

                         Standard orientation:
 ---------------------------------------------------------------------
 Center     Atomic      Atomic             Coordinates (Angstroms)
 Number     Number       Type             X           Y           Z
 ---------------------------------------------------------------------
      1         25           0        0.000000    0.000000    0.363636
      2          8           0        0.000000    0.000000   -1.136364
 ---------------------------------------------------------------------

 SCF Done:  E(ROHF) =  -1232.19194388     A.U. after   34 cycles
 E2 =    -0.9133751848D+00 EUMP2 =    -0.12331053190637D+04
 CCSD(T)
 CCSD(T)= -0.12331108356D+04

 The electronic state is 6-SG.
 Alpha  occ. eigenvalues -- -242.53019 -29.63428 -24.98953 -24.98953 -24.98047
 Alpha  occ. eigenvalues --  -20.48546  -4.09138  -2.74253  -2.74253  -2.72148
 Alpha  occ. eigenvalues --   -1.18482  -0.68091  -0.68091  -0.63799  -0.63799
 Alpha  occ. eigenvalues --   -0.53037  -0.39028  -0.39028  -0.33437
 Alpha virt. eigenvalues --   -0.00353   0.01963   0.01963   0.03297   0.03934
 Alpha virt. eigenvalues --    0.06837   0.06837   0.08650   0.08650   0.08839
 Alpha virt. eigenvalues --    0.09445   0.09445   0.13139   0.14686   0.23165

 Mulliken charges and spin densities:
               1          2
     1  Mn   1.025804   4.826942
     2  O   -1.025804   0.173058
 Sum of Mulliken charges =  -0.00000   5.00000

 Dipole moment (field-independent basis, Debye):
    X=             -0.0000    Y=              0.0000    Z=              6.0689  Tot=              6.0689
 Quadrupole moment (field-independent basis, Debye-Ang):
   XX=            -19.7346   YY=            -19.7346   ZZ=            -23.3010
   XY=             -0.0000   XZ=             -0.0000   YZ=              0.0000

 1\1\GINC-C494-053\SP\ROCCSD(T)-RW\Gen\Mn1O1(6)\AANNABE\14-Mar-2018\0\\
 #P ROCCSD(T)=(maxcyc=150, Window=(7,0), SaveAmplitudes, ReadAmplitudes
 )/Gen 5d 7f SCF=(maxcycles=300) Integral(NoXCTest, DKHSO) MaxDisk=500G
 B Pop=Regular Guess=Read IOp(5/15=2)\\MnO\\0,6\Mn,0,0.,0.,0.\O,0,0.,0.
 ,1.5\\Version=ES64L-G16RevA.03\State=6-SG\HF=-1232.1919439\MP2=-1233.1
 053191\MP3=-1233.033833\PUHF=-1232.1919439\PMP2-0=-1233.1053191\MP4SDQ
 =-1233.0905947\CCSD=-1233.0693982\CCSD(T)=-1233.1108356\RMSD=8.169e-09
 \PG=C*V [C*(O1Mn1)]\\@

 Normal termination of Gaussian 16 at Wed Mar 14 14:17:50 2018.
