 Gaussian 16, Revision A.03,
 Gaussian 16:  ES64L-G16RevA.03 25-Dec-2016

 ----------------------------------------------------------------------
 #P ROCCSD(T)=(maxcyc=150, Full)/Gen 5d 7f SCF=(maxcycles=300) Integral
 (NoXCTest, DKHSO) MaxDisk=500GB Pop=Regular IOp(5/15=2) Guess=Read
 ----------------------------------------------------------------------

 ---
 MnH
 ---
 Symbolic Z-matrix:
 Charge =  0 Multiplicity = 7

                         Standard orientation:
 ---------------------------------------------------------------------
 Center     Atomic      Atomic             Coordinates (Angstroms)
 Number     Number       Type             X           Y           Z
 ---------------------------------------------------------------------
      1         25           0        0.000000    0.000000    0.038462
      2          1           0        0.000000    0.000000   -0.961538
 ---------------------------------------------------------------------

 SCF Done:  E(ROHF) =  -1157.65333542     A.U. after   29 cycles
 E2 =    -0.1011357325D+01 EUMP2 =    -0.11586646927441D+04
 CCSD(T)
 CCSD(T)= -0.11586633735D+04

 The electronic state is 7-SG.
 Alpha  occ. eigenvalues -- -242.49296 -29.59478 -24.94908 -24.94908 -24.94595
 Alpha  occ. eigenvalues --   -4.09029  -2.75966  -2.73304  -2.73304  -0.71402
 Alpha  occ. eigenvalues --   -0.64020  -0.64020  -0.62874  -0.62874  -0.39087
 Alpha  occ. eigenvalues --   -0.21407
 Alpha virt. eigenvalues --    0.01197   0.01197   0.01921   0.03498   0.05657
 Alpha virt. eigenvalues --    0.05657   0.08439   0.08468   0.08468   0.08764
 Alpha virt. eigenvalues --    0.08764   0.08860   0.14333   0.22329   0.22329

 Mulliken charges and spin densities:
               1          2
     1  Mn   0.609904   5.928817
     2  H   -0.609904   0.071183
 Sum of Mulliken charges =  -0.00000   6.00000

 Dipole moment (field-independent basis, Debye):
    X=              0.0000    Y=              0.0000    Z=             -1.2681  Tot=              1.2681
 Quadrupole moment (field-independent basis, Debye-Ang):
   XX=            -16.5001   YY=            -16.5001   ZZ=            -26.1758
   XY=              0.0000   XZ=              0.0000   YZ=              0.0000

 \\#P ROCCSD(T)=(maxcyc=150, Full)/Gen 5d 7f SCF=(maxcycles=300) Integr
 Normal termination of Gaussian 16 at Wed Feb 14 22:11:19 2018.
