 Gaussian 16, Revision A.03,
 Gaussian 16:  ES64L-G16RevA.03 25-Dec-2016

 ----------------------------------------------------------------------
 #P ROCCSD(T)=(maxcyc=150, Window=(6,0), ReadAmplitudes)/Gen 5d 7f SCF=
 (maxcycles=300) Integral(NoXCTest, DKHSO) MaxDisk=500GB Pop=Regular Gu
 ess=Read
 ----------------------------------------------------------------------

 ---
 CrH
 ---
 Symbolic Z-matrix:
 Charge =  0 Multiplicity = 6

                         Standard orientation:
 ---------------------------------------------------------------------
 Center     Atomic      Atomic             Coordinates (Angstroms)
 Number     Number       Type             X           Y           Z
 ---------------------------------------------------------------------
      1         24           0        0.000000    0.000000    0.064000
      2          1           0        0.000000    0.000000   -1.536000
 ---------------------------------------------------------------------

 SCF Done:  E(ROHF) =  -1050.20189274     A.U. after   20 cycles
 E2 =    -0.5591330965D+00 EUMP2 =    -0.10507610258352D+04
 CCSD(T)
 CCSD(T)= -0.10507985698D+04

 The electronic state is 6-SG.
 Alpha  occ. eigenvalues -- -222.18949 -26.78187 -22.41599 -22.41599 -22.41557
 Alpha  occ. eigenvalues --   -3.65602  -2.41056  -2.41056  -2.37273  -0.53072
 Alpha  occ. eigenvalues --   -0.53072  -0.49998  -0.49998  -0.41757  -0.25745
 Alpha virt. eigenvalues --    0.01305   0.01305   0.01876   0.02195   0.04394
 Alpha virt. eigenvalues --    0.04889   0.04889   0.04966   0.04966   0.05236
 Alpha virt. eigenvalues --    0.05236   0.06317   0.08539   0.11645   0.15101

 Mulliken charges and spin densities:
               1          2
     1  Cr   0.386214   4.975540
     2  H   -0.386214   0.024460
 Sum of Mulliken charges =  -0.00000   5.00000

 Dipole moment (field-independent basis, Debye):
    X=              0.0000    Y=              0.0000    Z=              1.9671  Tot=              1.9671
 Quadrupole moment (field-independent basis, Debye-Ang):
   XX=            -17.2721   YY=            -17.2721   ZZ=            -23.5825
   XY=             -0.0000   XZ=             -0.0000   YZ=              0.0000

 1\1\GINC-C505-052\SP\ROCCSD(T)-RW\Gen\Cr1H1(6)\AANNABE\26-Feb-2018\0\\
 #P ROCCSD(T)=(maxcyc=150, Window=(6,0), ReadAmplitudes)/Gen 5d 7f SCF=
 (maxcycles=300) Integral(NoXCTest, DKHSO) MaxDisk=500GB Pop=Regular Gu
 ess=Read\\CrH\\0,6\Cr,0,0.,0.,0.\H,0,0.,0.,1.6\\Version=ES64L-G16RevA.
 03\State=6-SG\HF=-1050.2018927\MP2=-1050.7610258\PUHF=-1050.2018927\PM
 P2-0=-1050.7610258\CCSD=-1050.7815492\CCSD(T)=-1050.7985698\RMSD=5.311
 e-09\PG=C*V [C*(H1Cr1)]\\@

 Normal termination of Gaussian 16 at Mon Feb 26 01:31:17 2018.
