 Gaussian 16, Revision A.03,
 Gaussian 16:  ES64L-G16RevA.03 25-Dec-2016

 ----------------------------------------------------------------------
 #P ROCCSD(T)=(MaxCyc=150, Full)/Gen SCF=(maxcycle=400) Integral(DKHSO,
  NoXCTest) Pop=Regular MaxDisk=500GB Guess=Read IOp(5/15=2)
 ----------------------------------------------------------------------

 ---
 NiO
 ---
 Symbolic Z-matrix:
 Charge =  0 Multiplicity = 3

                         Standard orientation:
 ---------------------------------------------------------------------
 Center     Atomic      Atomic             Coordinates (Angstroms)
 Number     Number       Type             X           Y           Z
 ---------------------------------------------------------------------
      1         28           0        0.000000    0.000000    0.377778
      2          8           0        0.000000    0.000000   -1.322222
 ---------------------------------------------------------------------

 SCF Done:  E(ROHF) =  -1593.91896565     A.U. after   19 cycles
 E2 =    -0.1711887746D+01 EUMP2 =    -0.15956308533990D+04
 CCSD(T)
 CCSD(T)= -0.15956372534D+04

 The electronic state is 3-SG.
 Alpha  occ. eigenvalues -- -308.82922 -38.69573 -33.17642 -33.14122 -33.14122
 Alpha  occ. eigenvalues --  -20.48850  -5.13124  -3.50399  -3.42444  -3.42444
 Alpha  occ. eigenvalues --   -1.14162  -0.80566  -0.80566  -0.74359  -0.71719
 Alpha  occ. eigenvalues --   -0.71719  -0.38128  -0.38128  -0.36701
 Alpha virt. eigenvalues --   -0.05529   0.01776   0.01776   0.01859   0.03883
 Alpha virt. eigenvalues --    0.06752   0.06752   0.07586   0.07960   0.07960
 Alpha virt. eigenvalues --    0.09011   0.09011   0.12673   0.14910   0.21752

 Mulliken charges and spin densities:
               1          2
     1  Ni   0.986468   1.926541
     2  O   -0.986468   0.073459
 Sum of Mulliken charges =   0.00000   2.00000

 Dipole moment (field-independent basis, Debye):
    X=              0.0000    Y=              0.0000    Z=              8.1350  Tot=              8.1350
 Quadrupole moment (field-independent basis, Debye-Ang):
   XX=            -18.8604   YY=            -18.8604   ZZ=            -22.0316
   XY=              0.0000   XZ=              0.0000   YZ=              0.0000

 \\#P ROCCSD(T)=(MaxCyc=150, Full)/Gen SCF=(maxcycle=400) Integral(DKHS
 MP2-0=-1595.6308534\MP4SDQ=-1595.578782\CCSD=-1595.5681102\CCSD(T)=-15
 Normal termination of Gaussian 16 at Fri Mar 16 10:09:06 2018.
