 Gaussian 16, Revision A.03,
 Gaussian 16:  ES64L-G16RevA.03 25-Dec-2016

 ----------------------------------------------------------------------
 #P ROCCSD(T)=(maxcyc=150, Full, SaveAmplitudes, ReadAmplitudes)/Gen 5d
  7f SCF=(maxcycles=300) Integral(NoXCTest) MaxDisk=500GB Pop=Regular P
 seudo=Read Guess=Read IOp(5/15=2)
 ----------------------------------------------------------------------

 ---
 CrH
 ---
 Symbolic Z-matrix:
 Charge =  0 Multiplicity = 6

                         Standard orientation:
 ---------------------------------------------------------------------
 Center     Atomic      Atomic             Coordinates (Angstroms)
 Number     Number       Type             X           Y           Z
 ---------------------------------------------------------------------
      1         24           0        0.000000    0.000000    0.072000
      2          1           0        0.000000    0.000000   -1.728000
 ---------------------------------------------------------------------

 SCF Done:  E(ROHF) =  -86.8768558239     A.U. after   23 cycles
 E2 =    -0.5429397114D+00 EUMP2 =    -0.87419795535300D+02
 CCSD(T)
 CCSD(T)= -0.87469021521D+02

 The electronic state is 6-SG.
 Alpha  occ. eigenvalues --   -3.68645  -2.45078  -2.45078  -2.40164  -0.55825
 Alpha  occ. eigenvalues --   -0.55825  -0.52412  -0.52412  -0.39837  -0.26351
 Alpha virt. eigenvalues --    0.01172   0.01172   0.02304   0.02598   0.05371
 Alpha virt. eigenvalues --    0.05371   0.05703   0.07565   0.07565   0.08020
 Alpha virt. eigenvalues --    0.08020   0.09000   0.10443   0.17368   0.20638

 Mulliken charges and spin densities:
               1          2
     1  Cr   0.411936   4.981277
     2  H   -0.411936   0.018723
 Sum of Mulliken charges =  -0.00000   5.00000

 Dipole moment (field-independent basis, Debye):
    X=              0.0000    Y=              0.0000    Z=              2.2946  Tot=              2.2946
 Quadrupole moment (field-independent basis, Debye-Ang):
   XX=            -16.9691   YY=            -16.9691   ZZ=            -25.2287
   XY=              0.0000   XZ=              0.0000   YZ=              0.0000

 \\#P ROCCSD(T)=(maxcyc=150, Full, SaveAmplitudes, ReadAmplitudes)/Gen
 84\CCSD=-87.4523322\CCSD(T)=-87.4690215\RMSD=7.663e-09\PG=C*V [C*(H1Cr
 Normal termination of Gaussian 16 at Mon Feb 26 10:38:44 2018.
