 Gaussian 16, Revision A.03,
 Gaussian 16:  ES64L-G16RevA.03 25-Dec-2016

 ----------------------------------------------------------------------
 #P ROCCSD(T)=(maxcyc=150, Full, SaveAmplitudes, ReadAmplitudes)/Gen 5d
  7f SCF=(maxcycles=300, VShift=400) Integral(NoXCTest) MaxDisk=500GB P
 op=Full Pseudo=Read Guess=Read IOp(5/15=2)
 ----------------------------------------------------------------------

 ---
 CrO
 ---
 Symbolic Z-matrix:
 Charge =  0 Multiplicity = 5

                         Standard orientation:
 ---------------------------------------------------------------------
 Center     Atomic      Atomic             Coordinates (Angstroms)
 Number     Number       Type             X           Y           Z
 ---------------------------------------------------------------------
      1         24           0        0.000000    0.000000    0.375000
      2          8           0        0.000000    0.000000   -1.125000
 ---------------------------------------------------------------------

 SCF Done:  E(ROHF) =  -101.524280050     A.U. after   43 cycles
 E2 =    -0.8780679387D+00 EUMP2 =    -0.10240234798899D+03
 CCSD(T)
 CCSD(T)= -0.10242436605D+03

 Unable to determine electronic state:  an orbital has unidentified symmetry.
 Alpha  occ. eigenvalues --   -3.76310  -2.48508  -2.44453  -2.41918  -1.21203
 Alpha  occ. eigenvalues --   -0.63378  -0.57428  -0.55929  -0.50518  -0.48092
 Alpha  occ. eigenvalues --   -0.39654  -0.30098
 Alpha virt. eigenvalues --    0.00807   0.01167   0.01932   0.03203   0.04680
 Alpha virt. eigenvalues --    0.04961   0.06377   0.07618   0.07628   0.08020
 Alpha virt. eigenvalues --    0.08451   0.08564   0.12845   0.14490   0.16829

 Mulliken charges and spin densities:
               1          2
     1  Cr   1.018375   3.830084
     2  O   -1.018375   0.169916
 Sum of Mulliken charges =   0.00000   4.00000

 Dipole moment (field-independent basis, Debye):
    X=              0.0000    Y=              0.0000    Z=              4.4850  Tot=              4.4850
 Quadrupole moment (field-independent basis, Debye-Ang):
   XX=            -20.8436   YY=            -19.7390   ZZ=            -24.3637
   XY=              0.0000   XZ=              0.0000   YZ=              0.0000

 \\#P ROCCSD(T)=(maxcyc=150, Full, SaveAmplitudes, ReadAmplitudes)/Gen
 8957\CCSD=-102.3766499\CCSD(T)=-102.424366\RMSD=9.078e-09\PG=C*V [C*(O
 Normal termination of Gaussian 16 at Thu Apr  5 19:45:25 2018.
