 Gaussian 16, Revision A.03,
 Gaussian 16:  ES64L-G16RevA.03 25-Dec-2016

 ----------------------------------------------------------------------
 #P ROCCSD(T)=(maxcyc=150, Full, SaveAmplitudes, ReadAmplitudes)/Gen 5d
  7f SCF=(maxcycles=300, VShift=400) Integral(NoXCTest) MaxDisk=500GB P
 op=Full Pseudo=Read Guess=Read IOp(5/15=2)
 ----------------------------------------------------------------------

 ---
 MnO
 ---
 Symbolic Z-matrix:
 Charge =  0 Multiplicity = 6

                         Standard orientation:
 ---------------------------------------------------------------------
 Center     Atomic      Atomic             Coordinates (Angstroms)
 Number     Number       Type             X           Y           Z
 ---------------------------------------------------------------------
      1         25           0        0.000000    0.000000    0.363636
      2          8           0        0.000000    0.000000   -1.136364
 ---------------------------------------------------------------------

 SCF Done:  E(ROHF) =  -118.869166252     A.U. after   70 cycles
 E2 =    -0.9296148924D+00 EUMP2 =    -0.11979878114456D+03
 CCSD(T)
 CCSD(T)= -0.11981260344D+03

 The electronic state is 6-SG.
 Alpha  occ. eigenvalues --   -4.13700  -2.75853  -2.75853  -2.73542  -1.19751
 Alpha  occ. eigenvalues --   -0.68029  -0.68029  -0.63784  -0.63784  -0.53371
 Alpha  occ. eigenvalues --   -0.38907  -0.38907  -0.33430
 Alpha virt. eigenvalues --   -0.00486   0.01976   0.01976   0.03291   0.03888
 Alpha virt. eigenvalues --    0.06889   0.06889   0.08655   0.08655   0.08795
 Alpha virt. eigenvalues --    0.09469   0.09469   0.13188   0.14668   0.23266

 Mulliken charges and spin densities:
               1          2
     1  Mn   1.025462   4.819938
     2  O   -1.025462   0.180062
 Sum of Mulliken charges =  -0.00000   5.00000

 Dipole moment (field-independent basis, Debye):
    X=              0.0000    Y=              0.0000    Z=              6.1664  Tot=              6.1664
 Quadrupole moment (field-independent basis, Debye-Ang):
   XX=            -19.3464   YY=            -19.3464   ZZ=            -22.8691
   XY=              0.0000   XZ=              0.0000   YZ=              0.0000

 \\#P ROCCSD(T)=(maxcyc=150, Full, SaveAmplitudes, ReadAmplitudes)/Gen
 4SDQ=-119.7881997\CCSD=-119.7699947\CCSD(T)=-119.8126034\RMSD=8.717e-0
 Normal termination of Gaussian 16 at Thu Apr 19 08:12:31 2018.
