 Gaussian 16, Revision A.03,
 Gaussian 16:  ES64L-G16RevA.03 25-Dec-2016

 ----------------------------------------------------------------------
 #P ROCCSD(T)=(MaxCyc=150, FrzINGC)/Gen SCF=(maxcycle=400, vshift=200)
 Integral(DKHSO, NoXCTest) Pop=Regular MaxDisk=500GB Guess=Read IOp(5/1
 5=2)
 ----------------------------------------------------------------------

 ---
 CuH
 ---
 Symbolic Z-matrix:
 Charge =  0 Multiplicity = 1

                         Standard orientation:
 ---------------------------------------------------------------------
 Center     Atomic      Atomic             Coordinates (Angstroms)
 Number     Number       Type             X           Y           Z
 ---------------------------------------------------------------------
      1         29           0        0.000000    0.000000    0.053333
      2          1           0        0.000000    0.000000   -1.546667
 ---------------------------------------------------------------------

 SCF Done:  E(ROHF) =  -1653.71330593     A.U. after   15 cycles
 E2 =    -0.1079359005D+01 EUMP2 =    -0.16547926649334D+04
 CCSD(T)
 CCSD(T)= -0.16546983960D+04

 The electronic state is 1-SG.
 Alpha  occ. eigenvalues -- -332.50415 -41.67756 -35.81802 -35.81802 -35.81630
 Alpha  occ. eigenvalues --   -5.17204  -3.37923  -3.37668  -3.37668  -0.49839
 Alpha  occ. eigenvalues --   -0.49595  -0.49595  -0.49561  -0.49561  -0.33756
 Alpha virt. eigenvalues --   -0.00045   0.02911   0.02911   0.03672   0.05182
 Alpha virt. eigenvalues --    0.10001   0.10304   0.10304   0.17163   0.19691
 Alpha virt. eigenvalues --    0.19691   0.20254   0.20254   0.20905   0.25907

 Mulliken charges and spin densities:
               1          2
     1  Cu   0.377350   0.000000
     2  H   -0.377350   0.000000
 Sum of Mulliken charges =  -0.00000   0.00000

 Dipole moment (field-independent basis, Debye):
    X=              0.0000    Y=              0.0000    Z=              4.1694  Tot=              4.1694
 Quadrupole moment (field-independent basis, Debye-Ang):
   XX=            -13.8501   YY=            -13.8501   ZZ=            -16.7807
   XY=              0.0000   XZ=              0.0000   YZ=              0.0000

  ROCCSD(T)=(MaxCyc=150, FrzINGC)/Gen SCF=(maxcycle=400, vshift=200) In
 \CCSD(T)=-1654.698396\RMSD=6.494e-09\PG=C*V [C*(H1Cu1)]\\@
 Normal termination of Gaussian 16 at Wed Apr  4 18:59:31 2018.
