 Gaussian 16, Revision A.03,
 Gaussian 16:  ES64L-G16RevA.03 25-Dec-2016

 ----------------------------------------------------------------------
 #P ROCCSD(T)=(maxcyc=150, Full)/Gen 5d 7f SCF=(maxcycles=300) Integral
 (NoXCTest) MaxDisk=500GB Pop=Regular Pseudo=Read
 ----------------------------------------------------------------------

 ---
 ScH
 ---
 Symbolic Z-matrix:
 Charge =  0 Multiplicity = 1

                         Standard orientation:
 ---------------------------------------------------------------------
 Center     Atomic      Atomic             Coordinates (Angstroms)
 Number     Number       Type             X           Y           Z
 ---------------------------------------------------------------------
      1         21           0        0.000000    0.000000    0.054545
      2          1           0        0.000000    0.000000   -1.145455
 ---------------------------------------------------------------------

 SCF Done:  E(ROHF) =  -46.5447554541     A.U. after   11 cycles
 E2 =    -0.4176389512D+00 EUMP2 =    -0.46962394405363D+02
 CCSD(T)
 CCSD(T)= -0.47001977666D+02

 The electronic state is 1-SG.
 Alpha  occ. eigenvalues --   -2.61432  -1.63617  -1.59015  -1.59015  -0.46926
 Alpha  occ. eigenvalues --   -0.21451
 Alpha virt. eigenvalues --    0.01379   0.01379   0.01460   0.02238   0.03470
 Alpha virt. eigenvalues --    0.03912   0.03912   0.03948   0.03948   0.04887
 Alpha virt. eigenvalues --    0.04944   0.04944   0.09326   0.10635   0.10635

 Mulliken charges and spin densities:
               1          2
     1  Sc   0.492849   0.000000
     2  H   -0.492849   0.000000
 Sum of Mulliken charges =  -0.00000   0.00000

 Dipole moment (field-independent basis, Debye):
    X=              0.0000    Y=              0.0000    Z=              0.7747  Tot=              0.7747
 Quadrupole moment (field-independent basis, Debye-Ang):
   XX=            -23.6663   YY=            -23.6663   ZZ=            -22.5603
   XY=              0.0000   XZ=              0.0000   YZ=              0.0000

 P ROCCSD(T)=(maxcyc=150, Full)/Gen 5d 7f SCF=(maxcycles=300) Integral(
 DQ=-46.9849676\CCSD=-46.9844547\CCSD(T)=-47.0019777\RMSD=8.676e-09\PG=
 Normal termination of Gaussian 16 at Mon Feb 12 18:21:42 2018.
