 Gaussian 16, Revision A.03,
 Gaussian 16:  ES64L-G16RevA.03 25-Dec-2016

 ----------------------------------------------------------------------
 #P ROCCSD(T)=(maxcyc=150, Full)/Gen 5d 7f SCF=(maxcycles=300, NoVarAcc
 , VShift=200) MaxDisk=100GB Pop=Regular Pseudo=Read Guess=Read IOp(5/1
 5=2)
 ----------------------------------------------------------------------

 --
 Sc
 --
 Symbolic Z-matrix:
 Charge =  0 Multiplicity = 2

                         Standard orientation:
 ---------------------------------------------------------------------
 Center     Atomic      Atomic             Coordinates (Angstroms)
 Number     Number       Type             X           Y           Z
 ---------------------------------------------------------------------
      1         21           0        0.000000    0.000000    0.000000
 ---------------------------------------------------------------------

 SCF Done:  E(ROHF) =  -46.1106095337     A.U. after   17 cycles
 E2 =    -0.3847240551D+00 EUMP2 =    -0.46495333588876D+02
 CCSD(T)
 CCSD(T)= -0.46530703206D+02

 Unable to determine electronic state:  an orbital has unidentified symmetry.
 Alpha  occ. eigenvalues --   -2.62151  -1.63141  -1.63141  -1.59294  -0.34624
 Alpha  occ. eigenvalues --   -0.21500
 Alpha virt. eigenvalues --    0.01173   0.01265   0.01265   0.02128   0.02886
 Alpha virt. eigenvalues --    0.02889   0.02889   0.02897   0.02918   0.04301
 Alpha virt. eigenvalues --    0.04422   0.04422   0.08079   0.08199   0.08199

 Mulliken charges and spin densities:
               1          2
     1  Sc  -0.000000   1.000000
 Sum of Mulliken charges =  -0.00000   1.00000

 Dipole moment (field-independent basis, Debye):
    X=              0.0000    Y=              0.0000    Z=              0.0000  Tot=              0.0000
 Quadrupole moment (field-independent basis, Debye-Ang):
   XX=            -23.3943   YY=            -23.3943   ZZ=            -23.1003
   XY=             -0.0000   XZ=              0.0000   YZ=             -0.0000

 1\1\GINC-C506-092\SP\ROCCSD(T)-Full\Gen\Sc1(2)\AANNABE\01-Apr-2018\0\\
 #P ROCCSD(T)=(maxcyc=150, Full)/Gen 5d 7f SCF=(maxcycles=300, NoVarAcc
 , VShift=200) MaxDisk=100GB Pop=Regular Pseudo=Read Guess=Read IOp(5/1
 5=2)\\Sc\\0,2\Sc,0,0.,0.,0.\\Version=ES64L-G16RevA.03\HF=-46.1106095\M
 P2=-46.4953336\MP3=-46.5154545\PUHF=-46.1106095\PMP2-0=-46.4953336\MP4
 SDQ=-46.5149985\CCSD=-46.5152393\CCSD(T)=-46.5307032\RMSD=7.846e-09\PG
 =OH [O(Sc1)]\\@

 Normal termination of Gaussian 16 at Sun Apr  1 14:00:03 2018.
