 Gaussian 16, Revision A.03,
 Gaussian 16:  ES64L-G16RevA.03 25-Dec-2016

 ----------------------------------------------------------------------
 #P ROCCSD(T)=(maxcyc=150, Full, SaveAmplitudes, ReadAmplitudes)/Gen 5d
  7f SCF=(maxcycles=300, VShift=200) Integral(NoXCTest) MaxDisk=500GB P
 op=Regular Pseudo=Read Guess=Read IOp(5/15=2)
 ----------------------------------------------------------------------

 ---
 CrO
 ---
 Symbolic Z-matrix:
 Charge =  0 Multiplicity = 5

                         Standard orientation:
 ---------------------------------------------------------------------
 Center     Atomic      Atomic             Coordinates (Angstroms)
 Number     Number       Type             X           Y           Z
 ---------------------------------------------------------------------
      1         24           0        0.000000    0.000000    0.300000
      2          8           0        0.000000    0.000000   -0.900000
 ---------------------------------------------------------------------

 SCF Done:  E(ROHF) =  -101.536710271     A.U. after   49 cycles
 E2 =    -0.8803909583D+00 EUMP2 =    -0.10241710122975D+03
 CCSD(T)
 CCSD(T)= -0.10242368422D+03

 Unable to determine electronic state:  an orbital has unidentified symmetry.
 Alpha  occ. eigenvalues --   -3.73654  -2.51467  -2.46963  -2.43243  -1.26859
 Alpha  occ. eigenvalues --   -0.75059  -0.69079  -0.65631  -0.50380  -0.50291
 Alpha  occ. eigenvalues --   -0.30181  -0.26370
 Alpha virt. eigenvalues --    0.01451   0.02447   0.02798   0.02813   0.05416
 Alpha virt. eigenvalues --    0.07019   0.07666   0.07741   0.07795   0.07798
 Alpha virt. eigenvalues --    0.09679   0.09966   0.12199   0.17840   0.20687

 Mulliken charges and spin densities:
               1          2
     1  Cr   0.828197   3.723597
     2  O   -0.828197   0.276403
 Sum of Mulliken charges =  -0.00000   4.00000

 Dipole moment (field-independent basis, Debye):
    X=              0.0000    Y=              0.0000    Z=              0.2538  Tot=              0.2538
 Quadrupole moment (field-independent basis, Debye-Ang):
   XX=            -22.8608   YY=            -19.9748   ZZ=            -22.8439
   XY=              0.0000   XZ=              0.0000   YZ=              0.0000

 \\#P ROCCSD(T)=(maxcyc=150, Full, SaveAmplitudes, ReadAmplitudes)/Gen
 .3990737\CCSD=-102.3849771\CCSD(T)=-102.4236842\RMSD=8.419e-09\PG=C*V
 Normal termination of Gaussian 16 at Thu Mar 15 16:11:41 2018.
