 Gaussian 16, Revision A.03,
 Gaussian 16:  ES64L-G16RevA.03 25-Dec-2016

 ----------------------------------------------------------------------
 #P ROCCSD(T)=(MaxCyc=150, Full)/Gen SCF=(maxcycle=400) Pseudo=Read Int
 egral(NoXCTest) Pop=Regular MaxDisk=500GB
 ----------------------------------------------------------------------

 ---
 FeO
 ---
 Symbolic Z-matrix:
 Charge =  0 Multiplicity = 5

                         Standard orientation:
 ---------------------------------------------------------------------
 Center     Atomic      Atomic             Coordinates (Angstroms)
 Number     Number       Type             X           Y           Z
 ---------------------------------------------------------------------
      1         26           0        0.000000    0.000000    0.400000
      2          8           0        0.000000    0.000000   -1.300000
 ---------------------------------------------------------------------

 SCF Done:  E(ROHF) =  -138.490957914     A.U. after   37 cycles
 E2 =    -0.9875624907D+00 EUMP2 =    -0.13947852040483D+03
 CCSD(T)
 CCSD(T)= -0.13950739833D+03

 Unable to determine electronic state:  partially filled degenerate orbitals.
 Alpha  occ. eigenvalues --   -4.38265  -3.04782  -2.97560  -2.97560  -1.12422
 Alpha  occ. eigenvalues --   -0.69669  -0.69669  -0.67229  -0.66252  -0.61357
 Alpha  occ. eigenvalues --   -0.35268  -0.34201  -0.34201
 Alpha virt. eigenvalues --   -0.05507   0.01680   0.01680   0.01760   0.04027
 Alpha virt. eigenvalues --    0.06993   0.06993   0.08743   0.09487   0.09518
 Alpha virt. eigenvalues --    0.10624   0.10624   0.13759   0.14823   0.24428

 Mulliken charges and spin densities:
               1          2
     1  Fe   1.146494   3.883744
     2  O   -1.146494   0.116256
 Sum of Mulliken charges =   0.00000   4.00000

 Dipole moment (field-independent basis, Debye):
    X=              0.0000    Y=              0.0000    Z=              9.2776  Tot=              9.2776
 Quadrupole moment (field-independent basis, Debye-Ang):
   XX=            -18.5469   YY=            -18.5469   ZZ=            -23.1523
   XY=              0.0000   XZ=              0.0000   YZ=              0.0000

 \\#P ROCCSD(T)=(MaxCyc=150, Full)/Gen SCF=(maxcycle=400) Pseudo=Read I
 16059\CCSD=-139.4595736\CCSD(T)=-139.5073983\RMSD=3.760e-09\PG=C*V [C*
 Normal termination of Gaussian 16 at Sun Mar 25 00:47:07 2018.
