 Gaussian 16, Revision A.03,
 Gaussian 16:  ES64L-G16RevA.03 25-Dec-2016

 ----------------------------------------------------------------------
 #P ROCCSD(T)=(MaxCyc=150, Full)/Gen SCF=(maxcycle=400) Pseudo=Read Int
 egral(NoXCTest) Pop=Regular MaxDisk=500GB
 ----------------------------------------------------------------------

 ---
 FeO
 ---
 Symbolic Z-matrix:
 Charge =  0 Multiplicity = 5

                         Standard orientation:
 ---------------------------------------------------------------------
 Center     Atomic      Atomic             Coordinates (Angstroms)
 Number     Number       Type             X           Y           Z
 ---------------------------------------------------------------------
      1         26           0        0.000000    0.000000    0.400000
      2          8           0        0.000000    0.000000   -1.300000
 ---------------------------------------------------------------------

 SCF Done:  E(ROHF) =  -138.493977656     A.U. after   30 cycles
 E2 =    -0.1034727171D+01 EUMP2 =    -0.13952870482610D+03
 CCSD(T)
 CCSD(T)= -0.13955505123D+03

 Unable to determine electronic state:  partially filled degenerate orbitals.
 Alpha  occ. eigenvalues --   -4.38236  -3.04755  -2.97535  -2.97535  -1.12376
 Alpha  occ. eigenvalues --   -0.69667  -0.69667  -0.67224  -0.66250  -0.61355
 Alpha  occ. eigenvalues --   -0.35252  -0.34203  -0.34203
 Alpha virt. eigenvalues --   -0.05500   0.01401   0.01401   0.01501   0.03565
 Alpha virt. eigenvalues --    0.06083   0.06083   0.06399   0.06410   0.06672
 Alpha virt. eigenvalues --    0.07743   0.07743   0.11647   0.13471   0.19058

 Mulliken charges and spin densities:
               1          2
     1  Fe   1.132723   3.895917
     2  O   -1.132723   0.104083
 Sum of Mulliken charges =  -0.00000   4.00000

 Dipole moment (field-independent basis, Debye):
    X=              0.0000    Y=              0.0000    Z=              9.2686  Tot=              9.2686
 Quadrupole moment (field-independent basis, Debye-Ang):
   XX=            -18.5451   YY=            -18.5451   ZZ=            -23.1299
   XY=              0.0000   XZ=              0.0000   YZ=              0.0000

 \\#P ROCCSD(T)=(MaxCyc=150, Full)/Gen SCF=(maxcycle=400) Pseudo=Read I
 6293\CCSD=-139.5049247\CCSD(T)=-139.5550512\RMSD=3.553e-09\PG=C*V [C*(
 Normal termination of Gaussian 16 at Sun Mar 25 02:57:22 2018.
