 Gaussian 16, Revision A.03,
 Gaussian 16:  ES64L-G16RevA.03 25-Dec-2016

 ----------------------------------------------------------------------
 #P ROCCSD(T)=(maxcyc=150, Full, SaveAmplitudes, ReadAmplitudes)/Gen 5d
  7f SCF=(maxcycles=300) Integral(NoXCTest, DKHSO) MaxDisk=500GB Pop=Re
 gular Guess=Read
 ----------------------------------------------------------------------

 ---
 CrO
 ---
 Symbolic Z-matrix:
 Charge =  0 Multiplicity = 5

                         Standard orientation:
 ---------------------------------------------------------------------
 Center     Atomic      Atomic             Coordinates (Angstroms)
 Number     Number       Type             X           Y           Z
 ---------------------------------------------------------------------
      1         24           0        0.000000    0.000000    0.450000
      2          8           0        0.000000    0.000000   -1.350000
 ---------------------------------------------------------------------

 SCF Done:  E(ROHF) =  -1124.49246401     A.U. after   28 cycles
 E2 =    -0.1343352003D+01 EUMP2 =    -0.11258358160180D+04
 CCSD(T)
 CCSD(T)= -0.11258736416D+04

 Unable to determine electronic state:  an orbital has unidentified symmetry.
 Alpha  occ. eigenvalues -- -222.23799 -26.82998 -22.46652 -22.46553 -22.46024
 Alpha  occ. eigenvalues --  -20.44387  -3.68945  -2.45990  -2.41762  -2.40885
 Alpha  occ. eigenvalues --   -1.08475  -0.57033  -0.55649  -0.54949  -0.51629
 Alpha  occ. eigenvalues --   -0.34242  -0.32869  -0.32661
 Alpha virt. eigenvalues --   -0.04566   0.00607   0.01176   0.01357   0.03098
 Alpha virt. eigenvalues --    0.04477   0.05193   0.05193   0.05592   0.06070
 Alpha virt. eigenvalues --    0.06153   0.06507   0.10656   0.11286   0.13104

 Mulliken charges and spin densities:
               1          2
     1  Cr   1.108970   3.945231
     2  O   -1.108970   0.054769
 Sum of Mulliken charges =  -0.00000   4.00000

 Dipole moment (field-independent basis, Debye):
    X=             -0.0000    Y=             -0.0000    Z=              9.7334  Tot=              9.7334
 Quadrupole moment (field-independent basis, Debye-Ang):
   XX=            -20.0022   YY=            -19.1638   ZZ=            -24.3647
   XY=             -0.0000   XZ=             -0.0000   YZ=             -0.0000

 \\#P ROCCSD(T)=(maxcyc=150, Full, SaveAmplitudes, ReadAmplitudes)/Gen
 =-1125.835816\CCSD=-1125.8181839\CCSD(T)=-1125.8736416\RMSD=8.051e-09\
 Normal termination of Gaussian 16 at Wed Mar  7 06:18:49 2018.
