 Gaussian 16, Revision A.03,
 Gaussian 16:  ES64L-G16RevA.03 25-Dec-2016

 ----------------------------------------------------------------------
 #P ROCCSD(T)=(maxcyc=150, Full, SaveAmplitudes, ReadAmplitudes)/Gen 5d
  7f SCF=(maxcycles=300) Integral(NoXCTest) MaxDisk=500GB Pop=Regular P
 seudo=Read Guess=Read
 ----------------------------------------------------------------------

 ---
 ScO
 ---
 Symbolic Z-matrix:
 Charge =  0 Multiplicity = 2

                         Standard orientation:
 ---------------------------------------------------------------------
 Center     Atomic      Atomic             Coordinates (Angstroms)
 Number     Number       Type             X           Y           Z
 ---------------------------------------------------------------------
      1         21           0        0.000000    0.000000    0.468966
      2          8           0        0.000000    0.000000   -1.231034
 ---------------------------------------------------------------------

 SCF Done:  E(ROHF) =  -61.8702550086     A.U. after   16 cycles
 E2 =    -0.7096164857D+00 EUMP2 =    -0.62579871494284D+02
 CCSD(T)
 CCSD(T)= -0.62606656916D+02

 The electronic state is 2-SG.
 Alpha  occ. eigenvalues --   -2.66349  -1.66788  -1.63790  -1.63790  -1.12604
 Alpha  occ. eigenvalues --   -0.42734  -0.41175  -0.41175  -0.25180
 Alpha virt. eigenvalues --   -0.00043  -0.00043   0.01313   0.02041   0.02701
 Alpha virt. eigenvalues --    0.02701   0.02979   0.02979   0.03232   0.03232
 Alpha virt. eigenvalues --    0.03449   0.04614   0.06747   0.06747   0.09309

 Mulliken charges and spin densities:
               1          2
     1  Sc   1.295145   0.991527
     2  O   -1.295145   0.008473
 Sum of Mulliken charges =  -0.00000   1.00000

 Dipole moment (field-independent basis, Debye):
    X=              0.0000    Y=              0.0000    Z=              4.8331  Tot=              4.8331
 Quadrupole moment (field-independent basis, Debye-Ang):
   XX=            -21.9197   YY=            -21.9197   ZZ=            -32.6080
   XY=              0.0000   XZ=              0.0000   YZ=              0.0000

 \\#P ROCCSD(T)=(maxcyc=150, Full, SaveAmplitudes, ReadAmplitudes)/Gen
 0255\PMP2-0=-62.5798715\CCSD=-62.5645214\CCSD(T)=-62.6066569\RMSD=3.68
 Normal termination of Gaussian 16 at Wed Feb 21 04:45:27 2018.
