 Gaussian 16, Revision A.03,
 Gaussian 16:  ES64L-G16RevA.03 25-Dec-2016

 ----------------------------------------------------------------------
 #P ROCCSD(T)=(maxcyc=150, Full, SaveAmplitudes, ReadAmplitudes)/Gen 5d
  7f SCF=(maxcycles=300) Integral(NoXCTest) MaxDisk=500GB Pop=Regular P
 seudo=Read Guess=Read IOp(5/15=2)
 ----------------------------------------------------------------------

 ---
 ScO
 ---
 Symbolic Z-matrix:
 Charge =  0 Multiplicity = 2

                         Standard orientation:
 ---------------------------------------------------------------------
 Center     Atomic      Atomic             Coordinates (Angstroms)
 Number     Number       Type             X           Y           Z
 ---------------------------------------------------------------------
      1         21           0        0.000000    0.000000    0.386207
      2          8           0        0.000000    0.000000   -1.013793
 ---------------------------------------------------------------------

 SCF Done:  E(ROHF) =  -62.0110608684     A.U. after   18 cycles
 E2 =    -0.6772533434D+00 EUMP2 =    -0.62688314211839D+02
 CCSD(T)
 CCSD(T)= -0.62714580681D+02

 The electronic state is 2-SG.
 Alpha  occ. eigenvalues --   -2.62144  -1.71553  -1.55270  -1.55270  -1.08659
 Alpha  occ. eigenvalues --   -0.52297  -0.52297  -0.46032  -0.21148
 Alpha virt. eigenvalues --    0.00858   0.00858   0.02192   0.02223   0.03753
 Alpha virt. eigenvalues --    0.03753   0.03845   0.03845   0.03999   0.04563
 Alpha virt. eigenvalues --    0.04563   0.07114   0.10436   0.10436   0.10913

 Mulliken charges and spin densities:
               1          2
     1  Sc   1.252841   0.989011
     2  O   -1.252841   0.010989
 Sum of Mulliken charges =  -0.00000   1.00000

 Dipole moment (field-independent basis, Debye):
    X=              0.0000    Y=              0.0000    Z=              1.6008  Tot=              1.6008
 Quadrupole moment (field-independent basis, Debye-Ang):
   XX=            -22.2012   YY=            -22.2012   ZZ=            -30.0560
   XY=              0.0000   XZ=              0.0000   YZ=              0.0000

 \\#P ROCCSD(T)=(maxcyc=150, Full, SaveAmplitudes, ReadAmplitudes)/Gen
 8\CCSD=-62.6816605\CCSD(T)=-62.7145807\RMSD=2.532e-09\PG=C*V [C*(O1Sc1
 Normal termination of Gaussian 16 at Tue Feb 20 23:54:27 2018.
