 Gaussian 16, Revision A.03,
 Gaussian 16:  ES64L-G16RevA.03 25-Dec-2016

 ----------------------------------------------------------------------
 #P ROCCSD(T)=(maxcyc=150, Full, SaveAmplitudes, ReadAmplitudes)/Gen 5d
  7f SCF=(maxcycles=300, VShift=400) Integral(NoXCTest) MaxDisk=500GB P
 op=Regular Pseudo=Read Guess=Read IOp(5/15=2)
 ----------------------------------------------------------------------

 ---
 CrO
 ---
 Symbolic Z-matrix:
 Charge =  0 Multiplicity = 5

                         Standard orientation:
 ---------------------------------------------------------------------
 Center     Atomic      Atomic             Coordinates (Angstroms)
 Number     Number       Type             X           Y           Z
 ---------------------------------------------------------------------
      1         24           0        0.000000    0.000000    0.450000
      2          8           0        0.000000    0.000000   -1.350000
 ---------------------------------------------------------------------

 SCF Done:  E(ROHF) =  -101.806508876     A.U. after   94 cycles
 E2 =    -0.8480192171D+00 EUMP2 =    -0.10265452809324D+03
 CCSD(T)
 CCSD(T)= -0.10270861307D+03

 Unable to determine electronic state:  an orbital has unidentified symmetry.
 Alpha  occ. eigenvalues --   -3.74190  -2.51506  -2.46596  -2.45745  -1.09769
 Alpha  occ. eigenvalues --   -0.57222  -0.55758  -0.55088  -0.51955  -0.34147
 Alpha  occ. eigenvalues --   -0.32793  -0.32660
 Alpha virt. eigenvalues --   -0.04658   0.00695   0.01365   0.01762   0.03726
 Alpha virt. eigenvalues --    0.04958   0.06199   0.07413   0.07420   0.07633
 Alpha virt. eigenvalues --    0.08343   0.08728   0.12951   0.13800   0.15540

 Mulliken charges and spin densities:
               1          2
     1  Cr   1.170290   3.938815
     2  O   -1.170290   0.061185
 Sum of Mulliken charges =  -0.00000   4.00000

 Dipole moment (field-independent basis, Debye):
    X=              0.0000    Y=              0.0000    Z=              9.7876  Tot=              9.7876
 Quadrupole moment (field-independent basis, Debye-Ang):
   XX=            -19.6303   YY=            -18.7872   ZZ=            -24.0283
   XY=              0.0000   XZ=              0.0000   YZ=              0.0000

 \\#P ROCCSD(T)=(maxcyc=150, Full, SaveAmplitudes, ReadAmplitudes)/Gen
 2.6670428\CCSD=-102.6569239\CCSD(T)=-102.7086131\RMSD=9.750e-09\PG=C*V
 Normal termination of Gaussian 16 at Tue Apr  3 15:38:07 2018.
