 Gaussian 16, Revision A.03,
 Gaussian 16:  ES64L-G16RevA.03 25-Dec-2016

 ----------------------------------------------------------------------
 #P ROCCSD(T)=(MaxCyc=150, Window=(7,0))/Gen SCF=(maxcycle=400) Integra
 l(DKHSO, NoXCTest) Pop=Regular MaxDisk=500GB Guess=Read IOp(5/15=2)
 ----------------------------------------------------------------------

 ---
 CoO
 ---
 Symbolic Z-matrix:
 Charge =  0 Multiplicity = 4

                         Standard orientation:
 ---------------------------------------------------------------------
 Center     Atomic      Atomic             Coordinates (Angstroms)
 Number     Number       Type             X           Y           Z
 ---------------------------------------------------------------------
      1         27           0        0.000000    0.000000    0.342857
      2          8           0        0.000000    0.000000   -1.157143
 ---------------------------------------------------------------------

 SCF Done:  E(ROHF) =  -1466.68830361     A.U. after   22 cycles
 E2 =    -0.1134609195D+01 EUMP2 =    -0.14678229128025D+04
 CCSD(T)
 CCSD(T)= -0.14678241055D+04

 Unable to determine electronic state:  partially filled degenerate orbitals.
 Alpha  occ. eigenvalues -- -285.81618 -35.55617 -30.32218 -30.32218 -30.31960
 Alpha  occ. eigenvalues --  -20.49994  -4.79066  -3.23113  -3.21859  -3.21859
 Alpha  occ. eigenvalues --   -1.19744  -0.77306  -0.77306  -0.74717  -0.69674
 Alpha  occ. eigenvalues --   -0.66727  -0.40664  -0.40664  -0.36408
 Alpha virt. eigenvalues --   -0.03486   0.02087   0.02087   0.02465   0.03711
 Alpha virt. eigenvalues --    0.06934   0.06934   0.07078   0.07208   0.07217
 Alpha virt. eigenvalues --    0.08733   0.08733   0.12820   0.14824   0.21365

 Mulliken charges and spin densities:
               1          2
     1  Co   0.967804   2.855583
     2  O   -0.967804   0.144417
 Sum of Mulliken charges =  -0.00000   3.00000

 Dipole moment (field-independent basis, Debye):
    X=              0.0000    Y=             -0.0000    Z=              6.8204  Tot=              6.8204
 Quadrupole moment (field-independent basis, Debye-Ang):
   XX=            -19.2710   YY=            -19.2710   ZZ=            -21.0044
   XY=              0.0000   XZ=              0.0000   YZ=              0.0000

 1\1\GINC-C420-022\SP\ROCCSD(T)-RW\Gen\Co1O1(4)\GWANG18\31-Mar-2018\0\\
 #P ROCCSD(T)=(MaxCyc=150, Window=(7,0))/Gen SCF=(maxcycle=400) Integra
 l(DKHSO, NoXCTest) Pop=Regular MaxDisk=500GB Guess=Read IOp(5/15=2)\\C
 oO\\0,4\Co,0,0.,0.,0.\O,0,0.,0.,1.5\\Version=ES64L-G16RevA.03\HF=-1466
 .6883036\MP2=-1467.8229128\MP3=-1467.7033102\PUHF=-1466.6883036\PMP2-0
 =-1467.8229128\MP4SDQ=-1467.7854733\CCSD=-1467.7697499\CCSD(T)=-1467.8
 241055\RMSD=2.898e-09\PG=C*V [C*(O1Co1)]\\@

 Normal termination of Gaussian 16 at Sat Mar 31 22:43:04 2018.
