 Gaussian 16, Revision A.03,
 Gaussian 16:  ES64L-G16RevA.03 25-Dec-2016

 ----------------------------------------------------------------------
 #P ROCCSD(T)=(MaxCyc=150, Window=(7,0))/Gen SCF=(maxcycle=400) Integra
 l(DKHSO, NoXCTest) Pop=Regular MaxDisk=500GB Guess=Read IOp(5/15=2)
 ----------------------------------------------------------------------

 ---
 CoO
 ---
 Symbolic Z-matrix:
 Charge =  0 Multiplicity = 4

                         Standard orientation:
 ---------------------------------------------------------------------
 Center     Atomic      Atomic             Coordinates (Angstroms)
 Number     Number       Type             X           Y           Z
 ---------------------------------------------------------------------
      1         27           0        0.000000    0.000000    0.342857
      2          8           0        0.000000    0.000000   -1.157143
 ---------------------------------------------------------------------

 SCF Done:  E(ROHF) =  -1466.68218074     A.U. after   25 cycles
 E2 =    -0.1084166900D+01 EUMP2 =    -0.14677663476436D+04
 CCSD(T)
 CCSD(T)= -0.14677699747D+04

 Unable to determine electronic state:  partially filled degenerate orbitals.
 Alpha  occ. eigenvalues -- -285.81634 -35.55648 -30.32252 -30.32252 -30.31993
 Alpha  occ. eigenvalues --  -20.50155  -4.79089  -3.23139  -3.21880  -3.21880
 Alpha  occ. eigenvalues --   -1.19816  -0.77307  -0.77307  -0.74719  -0.69674
 Alpha  occ. eigenvalues --   -0.66737  -0.40655  -0.40655  -0.36423
 Alpha virt. eigenvalues --   -0.03490   0.02402   0.02402   0.02728   0.04102
 Alpha virt. eigenvalues --    0.08285   0.08285   0.10033   0.10990   0.11018
 Alpha virt. eigenvalues --    0.11793   0.11793   0.14830   0.15925   0.26141

 Mulliken charges and spin densities:
               1          2
     1  Co   1.032846   2.853683
     2  O   -1.032846   0.146317
 Sum of Mulliken charges =  -0.00000   3.00000

 Dipole moment (field-independent basis, Debye):
    X=              0.0000    Y=              0.0000    Z=              6.8300  Tot=              6.8300
 Quadrupole moment (field-independent basis, Debye-Ang):
   XX=            -19.2745   YY=            -19.2745   ZZ=            -21.0219
   XY=              0.0000   XZ=              0.0000   YZ=              0.0000

 1\1\GINC-C420-022\SP\ROCCSD(T)-RW\Gen\Co1O1(4)\GWANG18\31-Mar-2018\0\\
 #P ROCCSD(T)=(MaxCyc=150, Window=(7,0))/Gen SCF=(maxcycle=400) Integra
 l(DKHSO, NoXCTest) Pop=Regular MaxDisk=500GB Guess=Read IOp(5/15=2)\\C
 oO\\0,4\Co,0,0.,0.,0.\O,0,0.,0.,1.5\\Version=ES64L-G16RevA.03\HF=-1466
 .6821807\MP2=-1467.7663476\MP3=-1467.649627\PUHF=-1466.6821807\PMP2-0=
 -1467.7663476\MP4SDQ=-1467.7343365\CCSD=-1467.7178737\CCSD(T)=-1467.76
 99747\RMSD=8.163e-09\PG=C*V [C*(O1Co1)]\\@

 Normal termination of Gaussian 16 at Sat Mar 31 14:26:40 2018.
