 Gaussian 16, Revision A.03,
 Gaussian 16:  ES64L-G16RevA.03 25-Dec-2016

 ----------------------------------------------------------------------
 #P ROCCSD(T)=(maxcyc=150, Window=(6,0), SaveAmplitudes, ReadAmplitudes
 )/Gen 5d 7f SCF=(maxcycles=300) Integral(NoXCTest, DKHSO) MaxDisk=500G
 B Pop=Regular Guess=Read
 ----------------------------------------------------------------------

 ---
 MnH
 ---
 Symbolic Z-matrix:
 Charge =  0 Multiplicity = 7

                         Standard orientation:
 ---------------------------------------------------------------------
 Center     Atomic      Atomic             Coordinates (Angstroms)
 Number     Number       Type             X           Y           Z
 ---------------------------------------------------------------------
      1         25           0        0.000000    0.000000    0.061538
      2          1           0        0.000000    0.000000   -1.538462
 ---------------------------------------------------------------------

 SCF Done:  E(ROHF) =  -1157.94111799     A.U. after   19 cycles
 E2 =    -0.5863133891D+00 EUMP2 =    -0.11585274313829D+04
 CCSD(T)
 CCSD(T)= -0.11585418259D+04

 The electronic state is 7-SG.
 Alpha  occ. eigenvalues -- -242.49594 -29.60012 -24.95461 -24.95461 -24.95365
 Alpha  occ. eigenvalues --   -4.08949  -2.74211  -2.74211  -2.74112  -0.64057
 Alpha  occ. eigenvalues --   -0.63860  -0.63860  -0.63168  -0.63168  -0.41377
 Alpha  occ. eigenvalues --   -0.25711
 Alpha virt. eigenvalues --    0.01242   0.01242   0.02113   0.02969   0.05104
 Alpha virt. eigenvalues --    0.05104   0.05665   0.05815   0.05815   0.06194
 Alpha virt. eigenvalues --    0.06194   0.08872   0.13647   0.14270   0.18056

 Mulliken charges and spin densities:
               1          2
     1  Mn   0.360015   5.946901
     2  H   -0.360015   0.053099
 Sum of Mulliken charges =  -0.00000   6.00000

 Dipole moment (field-independent basis, Debye):
    X=             -0.0000    Y=              0.0000    Z=              0.9419  Tot=              0.9419
 Quadrupole moment (field-independent basis, Debye-Ang):
   XX=            -16.3853   YY=            -16.3853   ZZ=            -26.2678
   XY=              0.0000   XZ=             -0.0000   YZ=              0.0000

 1\1\GINC-C504-081\SP\ROCCSD(T)-RW\Gen\H1Mn1(7)\AANNABE\26-Feb-2018\0\\
 #P ROCCSD(T)=(maxcyc=150, Window=(6,0), SaveAmplitudes, ReadAmplitudes
 )/Gen 5d 7f SCF=(maxcycles=300) Integral(NoXCTest, DKHSO) MaxDisk=500G
 B Pop=Regular Guess=Read\\MnH\\0,7\Mn,0,0.,0.,0.\H,0,0.,0.,1.6\\Versio
 n=ES64L-G16RevA.03\State=7-SG\HF=-1157.941118\MP2=-1158.5274314\PUHF=-
 1157.941118\PMP2-0=-1158.5274314\CCSD=-1158.5262233\CCSD(T)=-1158.5418
 259\RMSD=5.304e-09\PG=C*V [C*(H1Mn1)]\\@

 Normal termination of Gaussian 16 at Mon Feb 26 00:27:59 2018.
