 Gaussian 16, Revision A.03,
 Gaussian 16:  ES64L-G16RevA.03 25-Dec-2016

 ----------------------------------------------------------------------
 #P ROCCSD(T)=(maxcyc=150, Window=(6,0), SaveAmplitudes, ReadAmplitudes
 )/Gen 5d 7f SCF=(maxcycles=300) Integral(NoXCTest, DKHSO) MaxDisk=500G
 B Pop=Regular Guess=Read IOp(5/15=2)
 ----------------------------------------------------------------------

 ---
 MnH
 ---
 Symbolic Z-matrix:
 Charge =  0 Multiplicity = 7

                         Standard orientation:
 ---------------------------------------------------------------------
 Center     Atomic      Atomic             Coordinates (Angstroms)
 Number     Number       Type             X           Y           Z
 ---------------------------------------------------------------------
      1         25           0        0.000000    0.000000    0.042308
      2          1           0        0.000000    0.000000   -1.057692
 ---------------------------------------------------------------------

 SCF Done:  E(ROHF) =  -1157.75481302     A.U. after   28 cycles
 E2 =    -0.5928708390D+00 EUMP2 =    -0.11583476838569D+04
 CCSD(T)
 CCSD(T)= -0.11583583627D+04

 The electronic state is 7-SG.
 Alpha  occ. eigenvalues -- -242.49212 -29.59805 -24.95189 -24.95189 -24.95011
 Alpha  occ. eigenvalues --   -4.09115  -2.75467  -2.73709  -2.73709  -0.69739
 Alpha  occ. eigenvalues --   -0.63839  -0.63839  -0.63297  -0.63297  -0.40178
 Alpha  occ. eigenvalues --   -0.22687
 Alpha virt. eigenvalues --    0.01312   0.01312   0.02014   0.03396   0.05772
 Alpha virt. eigenvalues --    0.05772   0.08498   0.08498   0.08631   0.08835
 Alpha virt. eigenvalues --    0.08869   0.08869   0.14227   0.22484   0.22535

 Mulliken charges and spin densities:
               1          2
     1  Mn   0.566798   5.931320
     2  H   -0.566798   0.068680
 Sum of Mulliken charges =  -0.00000   6.00000

 Dipole moment (field-independent basis, Debye):
    X=              0.0000    Y=              0.0000    Z=             -0.7484  Tot=              0.7484
 Quadrupole moment (field-independent basis, Debye-Ang):
   XX=            -16.3201   YY=            -16.3201   ZZ=            -25.8281
   XY=              0.0000   XZ=              0.0000   YZ=              0.0000

 1\1\GINC-C504-081\SP\ROCCSD(T)-RW\Gen\H1Mn1(7)\AANNABE\25-Feb-2018\0\\
 #P ROCCSD(T)=(maxcyc=150, Window=(6,0), SaveAmplitudes, ReadAmplitudes
 )/Gen 5d 7f SCF=(maxcycles=300) Integral(NoXCTest, DKHSO) MaxDisk=500G
 B Pop=Regular Guess=Read IOp(5/15=2)\\MnH\\0,7\Mn,0,0.,0.,0.\H,0,0.,0.
 ,1.1\\Version=ES64L-G16RevA.03\State=7-SG\HF=-1157.754813\MP2=-1158.34
 76839\MP3=-1158.3306105\PUHF=-1157.754813\PMP2-0=-1158.3476839\MP4SDQ=
 -1158.3418542\CCSD=-1158.3417485\CCSD(T)=-1158.3583627\RMSD=8.037e-09\
 PG=C*V [C*(H1Mn1)]\\@

 Normal termination of Gaussian 16 at Sun Feb 25 17:26:33 2018.
