 Gaussian 16, Revision A.03,
 Gaussian 16:  ES64L-G16RevA.03 25-Dec-2016

 ----------------------------------------------------------------------
 #P ROCCSD(T)=(maxcyc=150, Full, SaveAmplitudes, ReadAmplitudes)/Gen 5d
  7f SCF=(maxcycles=300) Integral(NoXCTest) MaxDisk=500GB Pop=Regular P
 seudo=Read Guess=Read IOp(5/15=2)
 ----------------------------------------------------------------------

 ---
 CrH
 ---
 Symbolic Z-matrix:
 Charge =  0 Multiplicity = 6

                         Standard orientation:
 ---------------------------------------------------------------------
 Center     Atomic      Atomic             Coordinates (Angstroms)
 Number     Number       Type             X           Y           Z
 ---------------------------------------------------------------------
      1         24           0        0.000000    0.000000    0.060000
      2          1           0        0.000000    0.000000   -1.440000
 ---------------------------------------------------------------------

 SCF Done:  E(ROHF) =  -86.3646213787     A.U. after   31 cycles
 E2 =    -0.5335563658D+00 EUMP2 =    -0.86898177744573D+02
 CCSD(T)
 CCSD(T)= -0.86934554908D+02

 The electronic state is 6-SG.
 Alpha  occ. eigenvalues --   -3.82819  -2.54674  -2.54674  -2.50708  -0.47631
 Alpha  occ. eigenvalues --   -0.47631  -0.44946  -0.44946  -0.43868  -0.26480
 Alpha virt. eigenvalues --    0.01418   0.01418   0.02238   0.02481   0.05596
 Alpha virt. eigenvalues --    0.05596   0.05990   0.07754   0.07754   0.08099
 Alpha virt. eigenvalues --    0.08099   0.08638   0.10224   0.18252   0.20954

 Mulliken charges and spin densities:
               1          2
     1  Cr   0.612333   4.986258
     2  H   -0.612333   0.013742
 Sum of Mulliken charges =  -0.00000   5.00000

 Dipole moment (field-independent basis, Debye):
    X=              0.0000    Y=              0.0000    Z=              1.6879  Tot=              1.6879
 Quadrupole moment (field-independent basis, Debye-Ang):
   XX=            -17.1118   YY=            -17.1118   ZZ=            -22.3769
   XY=              0.0000   XZ=              0.0000   YZ=              0.0000

 \\#P ROCCSD(T)=(maxcyc=150, Full, SaveAmplitudes, ReadAmplitudes)/Gen
 99\CCSD=-86.9171933\CCSD(T)=-86.9345549\RMSD=6.091e-09\PG=C*V [C*(H1Cr
 Normal termination of Gaussian 16 at Mon Feb 26 05:31:47 2018.
