 Gaussian 16, Revision A.03,
 Gaussian 16:  ES64L-G16RevA.03 25-Dec-2016

 ----------------------------------------------------------------------
 #P ROCCSD(T)=(maxcyc=150, Full)/Gen 5d 7f SCF=(maxcycles=300) Integral
 (NoXCTest) MaxDisk=500GB Pop=Regular Pseudo=Read Guess=Read
 ----------------------------------------------------------------------

 ---
 MnH
 ---
 Symbolic Z-matrix:
 Charge =  0 Multiplicity = 7

                         Standard orientation:
 ---------------------------------------------------------------------
 Center     Atomic      Atomic             Coordinates (Angstroms)
 Number     Number       Type             X           Y           Z
 ---------------------------------------------------------------------
      1         25           0        0.000000    0.000000    0.084615
      2          1           0        0.000000    0.000000   -2.115385
 ---------------------------------------------------------------------

 SCF Done:  E(ROHF) =  -104.044435109     A.U. after   20 cycles
 E2 =    -0.5888489514D+00 EUMP2 =    -0.10463328406017D+03
 CCSD(T)
 CCSD(T)= -0.10465889314D+03

 The electronic state is 7-SG.
 Alpha  occ. eigenvalues --   -4.18723  -2.83467  -2.83467  -2.83191  -0.66784
 Alpha  occ. eigenvalues --   -0.66784  -0.66157  -0.66157  -0.66015  -0.37414
 Alpha  occ. eigenvalues --   -0.27430
 Alpha virt. eigenvalues --    0.00730   0.00730   0.02037   0.02960   0.04666
 Alpha virt. eigenvalues --    0.04666   0.05494   0.05707   0.05707   0.06193
 Alpha virt. eigenvalues --    0.06193   0.09901   0.11318   0.13248   0.17861

 Mulliken charges and spin densities:
               1          2
     1  Mn   0.400894   5.948560
     2  H   -0.400894   0.051440
 Sum of Mulliken charges =  -0.00000   6.00000

 Dipole moment (field-independent basis, Debye):
    X=              0.0000    Y=              0.0000    Z=              3.2068  Tot=              3.2068
 Quadrupole moment (field-independent basis, Debye-Ang):
   XX=            -16.6663   YY=            -16.6663   ZZ=            -29.5395
   XY=              0.0000   XZ=              0.0000   YZ=              0.0000

 \\#P ROCCSD(T)=(maxcyc=150, Full)/Gen 5d 7f SCF=(maxcycles=300) Integr
 0=-104.6332841\MP4SDQ=-104.6403533\CCSD=-104.6424951\CCSD(T)=-104.6588
 Normal termination of Gaussian 16 at Tue Feb 13 18:26:50 2018.
