 Gaussian 16, Revision A.03,
 Gaussian 16:  ES64L-G16RevA.03 25-Dec-2016

 ----------------------------------------------------------------------
 #P ROCCSD(T)=(MaxCyc=150, Full)/Gen SCF=(maxcycle=400, vshift=200) Int
 egral(DKHSO, NoXCTest) Pop=Regular MaxDisk=500GB Guess=Read IOp(5/15=2
 )
 ----------------------------------------------------------------------

 ---
 CuH
 ---
 Symbolic Z-matrix:
 Charge =  0 Multiplicity = 1

                         Standard orientation:
 ---------------------------------------------------------------------
 Center     Atomic      Atomic             Coordinates (Angstroms)
 Number     Number       Type             X           Y           Z
 ---------------------------------------------------------------------
      1         29           0        0.000000    0.000000    0.053333
      2          1           0        0.000000    0.000000   -1.546667
 ---------------------------------------------------------------------

 SCF Done:  E(ROHF) =  -1653.71584301     A.U. after   10 cycles
 E2 =    -0.1621542964D+01 EUMP2 =    -0.16553373859696D+04
 CCSD(T)
 CCSD(T)= -0.16552324412D+04

 The electronic state is 1-SG.
 Alpha  occ. eigenvalues -- -332.50428 -41.67739 -35.81783 -35.81782 -35.81610
 Alpha  occ. eigenvalues --   -5.17197  -3.37911  -3.37662  -3.37662  -0.49840
 Alpha  occ. eigenvalues --   -0.49603  -0.49603  -0.49571  -0.49571  -0.33762
 Alpha virt. eigenvalues --   -0.00115   0.02534   0.02534   0.03042   0.04102
 Alpha virt. eigenvalues --    0.07680   0.08566   0.08566   0.12147   0.12147
 Alpha virt. eigenvalues --    0.12176   0.12416   0.12416   0.15006   0.18520

 Mulliken charges and spin densities:
               1          2
     1  Cu   0.313450   0.000000
     2  H   -0.313450   0.000000
 Sum of Mulliken charges =  -0.00000   0.00000

 Dipole moment (field-independent basis, Debye):
    X=              0.0000    Y=              0.0000    Z=              4.1577  Tot=              4.1577
 Quadrupole moment (field-independent basis, Debye-Ang):
   XX=            -13.8384   YY=            -13.8384   ZZ=            -16.8012
   XY=              0.0000   XZ=             -0.0000   YZ=             -0.0000

 P ROCCSD(T)=(MaxCyc=150, Full)/Gen SCF=(maxcycle=400, vshift=200) Inte
 Normal termination of Gaussian 16 at Thu Apr  5 22:47:30 2018.
