 Gaussian 16, Revision A.03,
 Gaussian 16:  ES64L-G16RevA.03 25-Dec-2016

 ----------------------------------------------------------------------
 #P ROCCSD(T)=(MaxCyc=150, Full)/Gen SCF=(maxcycle=400, vshift=200) Int
 egral(DKHSO, NoXCTest) Pop=Regular MaxDisk=500GB Guess=Read IOp(5/15=2
 )
 ----------------------------------------------------------------------

 ---
 CuH
 ---
 Symbolic Z-matrix:
 Charge =  0 Multiplicity = 1

                         Standard orientation:
 ---------------------------------------------------------------------
 Center     Atomic      Atomic             Coordinates (Angstroms)
 Number     Number       Type             X           Y           Z
 ---------------------------------------------------------------------
      1         29           0        0.000000    0.000000    0.053333
      2          1           0        0.000000    0.000000   -1.546667
 ---------------------------------------------------------------------

 SCF Done:  E(ROHF) =  -1653.71557591     A.U. after   11 cycles
 E2 =    -0.1580909081D+01 EUMP2 =    -0.16552964849947D+04
 CCSD(T)
 CCSD(T)= -0.16551933920D+04

 The electronic state is 1-SG.
 Alpha  occ. eigenvalues -- -332.50419 -41.67737 -35.81781 -35.81781 -35.81608
 Alpha  occ. eigenvalues --   -5.17196  -3.37910  -3.37661  -3.37661  -0.49839
 Alpha  occ. eigenvalues --   -0.49601  -0.49601  -0.49570  -0.49570  -0.33760
 Alpha virt. eigenvalues --   -0.00059   0.02618   0.02618   0.03326   0.04836
 Alpha virt. eigenvalues --    0.08889   0.08931   0.08931   0.13436   0.13524
 Alpha virt. eigenvalues --    0.13524   0.13826   0.13826   0.19657   0.22016

 Mulliken charges and spin densities:
               1          2
     1  Cu   0.351767  -0.000000
     2  H   -0.351767  -0.000000
 Sum of Mulliken charges =  -0.00000  -0.00000

 Dipole moment (field-independent basis, Debye):
    X=              0.0000    Y=              0.0000    Z=              4.1593  Tot=              4.1593
 Quadrupole moment (field-independent basis, Debye-Ang):
   XX=            -13.8400   YY=            -13.8400   ZZ=            -16.7984
   XY=              0.0000   XZ=              0.0000   YZ=              0.0000

 P ROCCSD(T)=(MaxCyc=150, Full)/Gen SCF=(maxcycle=400, vshift=200) Inte
 Normal termination of Gaussian 16 at Wed Apr  4 21:02:02 2018.
