 Gaussian 16, Revision A.03,
 Gaussian 16:  ES64L-G16RevA.03 25-Dec-2016

 ----------------------------------------------------------------------
 #P ROCCSD(T)=(maxcyc=150, Full, SaveAmplitudes, ReadAmplitudes)/Gen 5d
  7f SCF=(maxcycles=300) Integral(NoXCTest) MaxDisk=500GB Pop=Regular P
 seudo=Read Guess=Read
 ----------------------------------------------------------------------

 ---
 CrH
 ---
 Symbolic Z-matrix:
 Charge =  0 Multiplicity = 6

                         Standard orientation:
 ---------------------------------------------------------------------
 Center     Atomic      Atomic             Coordinates (Angstroms)
 Number     Number       Type             X           Y           Z
 ---------------------------------------------------------------------
      1         24           0        0.000000    0.000000    0.064000
      2          1           0        0.000000    0.000000   -1.536000
 ---------------------------------------------------------------------

 SCF Done:  E(ROHF) =  -86.3736887054     A.U. after   24 cycles
 E2 =    -0.5512202654D+00 EUMP2 =    -0.86924908970811D+02
 CCSD(T)
 CCSD(T)= -0.86962869580D+02

 The electronic state is 6-SG.
 Alpha  occ. eigenvalues --   -3.83961  -2.55947  -2.55947  -2.51636  -0.48954
 Alpha  occ. eigenvalues --   -0.48954  -0.46185  -0.46185  -0.42727  -0.26687
 Alpha virt. eigenvalues --    0.01285   0.01285   0.01995   0.02342   0.04639
 Alpha virt. eigenvalues --    0.04987   0.04987   0.05384   0.05384   0.05645
 Alpha virt. eigenvalues --    0.05645   0.06812   0.09487   0.12369   0.16961

 Mulliken charges and spin densities:
               1          2
     1  Cr   0.350930   4.983454
     2  H   -0.350930   0.016546
 Sum of Mulliken charges =  -0.00000   5.00000

 Dipole moment (field-independent basis, Debye):
    X=              0.0000    Y=              0.0000    Z=              1.8403  Tot=              1.8403
 Quadrupole moment (field-independent basis, Debye-Ang):
   XX=            -17.1522   YY=            -17.1522   ZZ=            -23.2990
   XY=              0.0000   XZ=              0.0000   YZ=              0.0000

 \\#P ROCCSD(T)=(maxcyc=150, Full, SaveAmplitudes, ReadAmplitudes)/Gen
 36887\PMP2-0=-86.924909\CCSD=-86.9450317\CCSD(T)=-86.9628696\RMSD=7.72
 Normal termination of Gaussian 16 at Mon Feb 26 08:37:50 2018.
