 Gaussian 16, Revision A.03,
 Gaussian 16:  ES64L-G16RevA.03 25-Dec-2016

 ----------------------------------------------------------------------
 #P ROCCSD(T)=(maxcyc=150, Full, SaveAmplitudes, ReadAmplitudes)/Gen 5d
  7f SCF=(maxcycles=300) Integral(NoXCTest) MaxDisk=500GB Pop=Regular P
 seudo=Read Guess=Read
 ----------------------------------------------------------------------

 ---
 TiO
 ---
 Symbolic Z-matrix:
 Charge =  0 Multiplicity = 3

                         Standard orientation:
 ---------------------------------------------------------------------
 Center     Atomic      Atomic             Coordinates (Angstroms)
 Number     Number       Type             X           Y           Z
 ---------------------------------------------------------------------
      1         22           0        0.000000    0.000000    0.400000
      2          8           0        0.000000    0.000000   -1.100000
 ---------------------------------------------------------------------

 SCF Done:  E(ROHF) =  -73.3903872309     A.U. after   19 cycles
 E2 =    -0.7733605966D+00 EUMP2 =    -0.74163747827537D+02
 CCSD(T)
 CCSD(T)= -0.74188340600D+02

 Unable to determine electronic state:  an orbital has unidentified symmetry.
 Alpha  occ. eigenvalues --   -2.98263  -1.90228  -1.88117  -1.88117  -1.17050
 Alpha  occ. eigenvalues --   -0.48992  -0.48992  -0.48550  -0.42453  -0.24800
 Alpha virt. eigenvalues --    0.00691   0.00691   0.01756   0.02353   0.03739
 Alpha virt. eigenvalues --    0.03800   0.03854   0.03854   0.04078   0.04188
 Alpha virt. eigenvalues --    0.04188   0.06069   0.09771   0.10469   0.11516

 Mulliken charges and spin densities:
               1          2
     1  Ti   0.992685   1.968706
     2  O   -0.992685   0.031294
 Sum of Mulliken charges =  -0.00000   2.00000

 Dipole moment (field-independent basis, Debye):
    X=              0.0000    Y=              0.0000    Z=              3.0590  Tot=              3.0590
 Quadrupole moment (field-independent basis, Debye-Ang):
   XX=            -21.5433   YY=            -21.5433   ZZ=            -28.4600
   XY=              0.0000   XZ=              0.0000   YZ=              0.0000

 \\#P ROCCSD(T)=(maxcyc=150, Full, SaveAmplitudes, ReadAmplitudes)/Gen
 -0=-74.1637478\CCSD=-74.1456481\CCSD(T)=-74.1883406\RMSD=5.596e-09\PG=
 Normal termination of Gaussian 16 at Sat Mar 10 01:45:11 2018.
