 Gaussian 16, Revision A.03,
 Gaussian 16:  ES64L-G16RevA.03 25-Dec-2016

 ----------------------------------------------------------------------
 #P ROCCSD(T)=(maxcyc=150, Full)/Gen 5d 7f SCF=(maxcycles=300) Integral
 (NoXCTest) MaxDisk=500GB Pop=Regular Pseudo=Read IOp(5/15=2) Guess=Rea
 d
 ----------------------------------------------------------------------

 ---
 ScH
 ---
 Symbolic Z-matrix:
 Charge =  0 Multiplicity = 1

                         Standard orientation:
 ---------------------------------------------------------------------
 Center     Atomic      Atomic             Coordinates (Angstroms)
 Number     Number       Type             X           Y           Z
 ---------------------------------------------------------------------
      1         21           0        0.000000    0.000000    0.090909
      2          1           0        0.000000    0.000000   -1.909091
 ---------------------------------------------------------------------

 SCF Done:  E(ROHF) =  -46.7900420111     A.U. after   10 cycles
 E2 =    -0.4186436692D+00 EUMP2 =    -0.47208685680371D+02
 CCSD(T)
 CCSD(T)= -0.47254355204D+02

 The electronic state is 1-SG.
 Alpha  occ. eigenvalues --   -2.74985  -1.68296  -1.68296  -1.68099  -0.38033
 Alpha  occ. eigenvalues --   -0.24062
 Alpha virt. eigenvalues --    0.01002   0.01002   0.01285   0.02026   0.02823
 Alpha virt. eigenvalues --    0.02823   0.02945   0.02945   0.02996   0.03903
 Alpha virt. eigenvalues --    0.03929   0.03929   0.06757   0.06757   0.07535

 Mulliken charges and spin densities:
               1          2
     1  Sc   0.254702   0.000000
     2  H   -0.254702   0.000000
 Sum of Mulliken charges =  -0.00000   0.00000

 Dipole moment (field-independent basis, Debye):
    X=              0.0000    Y=              0.0000    Z=              2.1807  Tot=              2.1807
 Quadrupole moment (field-independent basis, Debye-Ang):
   XX=            -22.7760   YY=            -22.7760   ZZ=            -28.3083
   XY=              0.0000   XZ=              0.0000   YZ=              0.0000

 P ROCCSD(T)=(maxcyc=150, Full)/Gen 5d 7f SCF=(maxcycles=300) Integral(
 2-0=-47.2086857\MP4SDQ=-47.2340916\CCSD=-47.2345117\CCSD(T)=-47.254355
 Normal termination of Gaussian 16 at Wed Feb 14 08:56:37 2018.
