 Gaussian 16, Revision A.03,
 Gaussian 16:  ES64L-G16RevA.03 25-Dec-2016

 ----------------------------------------------------------------------
 #P ROCCSD(T)=(maxcyc=150, Full, SaveAmplitudes, ReadAmplitudes)/Gen 5d
  7f SCF=(maxcycles=300) Integral(NoXCTest) MaxDisk=500GB Pop=Regular P
 seudo=Read Guess=Read
 ----------------------------------------------------------------------

 ---
 MnO
 ---
 Symbolic Z-matrix:
 Charge =  0 Multiplicity = 6

                         Standard orientation:
 ---------------------------------------------------------------------
 Center     Atomic      Atomic             Coordinates (Angstroms)
 Number     Number       Type             X           Y           Z
 ---------------------------------------------------------------------
      1         25           0        0.000000    0.000000    0.460606
      2          8           0        0.000000    0.000000   -1.439394
 ---------------------------------------------------------------------

 SCF Done:  E(ROHF) =  -119.364364727     A.U. after   22 cycles
 E2 =    -0.9477839467D+00 EUMP2 =    -0.12031214867349D+03
 CCSD(T)
 CCSD(T)= -0.12033680640D+03

 The electronic state is 6-SG.
 Alpha  occ. eigenvalues --   -4.11260  -2.77645  -2.77645  -2.77291  -1.08436
 Alpha  occ. eigenvalues --   -0.65775  -0.65775  -0.65704  -0.65704  -0.63272
 Alpha  occ. eigenvalues --   -0.34569  -0.34569  -0.32332
 Alpha virt. eigenvalues --   -0.05481   0.01075   0.01075   0.01357   0.03342
 Alpha virt. eigenvalues --    0.05486   0.05486   0.05691   0.05691   0.06366
 Alpha virt. eigenvalues --    0.06745   0.06745   0.10744   0.12533   0.17863

 Mulliken charges and spin densities:
               1          2
     1  Mn   1.064564   4.962350
     2  O   -1.064564   0.037650
 Sum of Mulliken charges =  -0.00000   5.00000

 Dipole moment (field-independent basis, Debye):
    X=              0.0000    Y=              0.0000    Z=              9.3411  Tot=              9.3411
 Quadrupole moment (field-independent basis, Debye-Ang):
   XX=            -19.2320   YY=            -19.2320   ZZ=            -25.0622
   XY=              0.0000   XZ=              0.0000   YZ=              0.0000

 \\#P ROCCSD(T)=(maxcyc=150, Full, SaveAmplitudes, ReadAmplitudes)/Gen
 9.3643647\PMP2-0=-120.3121487\CCSD=-120.2946511\CCSD(T)=-120.3368064\R
 Normal termination of Gaussian 16 at Wed Mar 14 07:12:33 2018.
