 Gaussian 16, Revision A.03,
 Gaussian 16:  ES64L-G16RevA.03 25-Dec-2016

 ----------------------------------------------------------------------
 #P ROCCSD(T)=(maxcyc=150, Full, SaveAmplitudes, ReadAmplitudes)/Gen 5d
  7f SCF=(maxcycles=300) Integral(NoXCTest) MaxDisk=500GB Pop=Regular P
 seudo=Read Guess=Read IOp(5/15=2)
 ----------------------------------------------------------------------

 ---
 TiO
 ---
 Symbolic Z-matrix:
 Charge =  0 Multiplicity = 3

                         Standard orientation:
 ---------------------------------------------------------------------
 Center     Atomic      Atomic             Coordinates (Angstroms)
 Number     Number       Type             X           Y           Z
 ---------------------------------------------------------------------
      1         22           0        0.000000    0.000000    0.453333
      2          8           0        0.000000    0.000000   -1.246667
 ---------------------------------------------------------------------

 SCF Done:  E(ROHF) =  -73.5173556714     A.U. after   22 cycles
 E2 =    -0.7520113794D+00 EUMP2 =    -0.74269367050812D+02
 CCSD(T)
 CCSD(T)= -0.74302571170D+02

 Unable to determine electronic state:  an orbital has unidentified symmetry.
 Alpha  occ. eigenvalues --   -3.06877  -1.92472  -1.92472  -1.89431  -1.15485
 Alpha  occ. eigenvalues --   -0.47726  -0.45044  -0.42027  -0.42027  -0.27652
 Alpha virt. eigenvalues --   -0.00067  -0.00067   0.01254   0.02417   0.03819
 Alpha virt. eigenvalues --    0.03819   0.04509   0.04834   0.05127   0.05895
 Alpha virt. eigenvalues --    0.05895   0.06367   0.09642   0.11017   0.13046

 Mulliken charges and spin densities:
               1          2
     1  Ti   0.950319   1.991687
     2  O   -0.950319   0.008313
 Sum of Mulliken charges =  -0.00000   2.00000

 Dipole moment (field-independent basis, Debye):
    X=              0.0000    Y=              0.0000    Z=              5.1329  Tot=              5.1329
 Quadrupole moment (field-independent basis, Debye-Ang):
   XX=            -21.4698   YY=            -21.4698   ZZ=            -29.8573
   XY=              0.0000   XZ=              0.0000   YZ=              0.0000

 \\#P ROCCSD(T)=(maxcyc=150, Full, SaveAmplitudes, ReadAmplitudes)/Gen
 .2545659\CCSD(T)=-74.3025712\RMSD=3.372e-09\PG=C*V [C*(O1Ti1)]\\@
 Normal termination of Gaussian 16 at Tue Mar 13 01:02:37 2018.
