 Gaussian 16, Revision A.03,
 Gaussian 16:  ES64L-G16RevA.03 25-Dec-2016

 ----------------------------------------------------------------------
 #P ROCCSD(T)=(maxcyc=150, Full, SaveAmplitudes, ReadAmplitudes)/Gen 5d
  7f SCF=(maxcycles=300) Integral(NoXCTest) MaxDisk=500GB Pop=Regular P
 seudo=Read Guess=Read IOp(5/15=2)
 ----------------------------------------------------------------------

 ---
 CrO
 ---
 Symbolic Z-matrix:
 Charge =  0 Multiplicity = 5

                         Standard orientation:
 ---------------------------------------------------------------------
 Center     Atomic      Atomic             Coordinates (Angstroms)
 Number     Number       Type             X           Y           Z
 ---------------------------------------------------------------------
      1         24           0        0.000000    0.000000    0.375000
      2          8           0        0.000000    0.000000   -1.125000
 ---------------------------------------------------------------------

 SCF Done:  E(ROHF) =  -102.016435070     A.U. after   29 cycles
 E2 =    -0.8871501523D+00 EUMP2 =    -0.10290358522247D+03
 CCSD(T)
 CCSD(T)= -0.10292539106D+03

 Unable to determine electronic state:  an orbital has unidentified symmetry.
 Alpha  occ. eigenvalues --   -3.78145  -2.49163  -2.45104  -2.42440  -1.20008
 Alpha  occ. eigenvalues --   -0.63566  -0.57772  -0.56316  -0.50349  -0.47813
 Alpha  occ. eigenvalues --   -0.39731  -0.30284
 Alpha virt. eigenvalues --    0.00811   0.01145   0.01921   0.03205   0.04682
 Alpha virt. eigenvalues --    0.04937   0.06353   0.07615   0.07625   0.08026
 Alpha virt. eigenvalues --    0.08453   0.08549   0.12858   0.14561   0.16734

 Mulliken charges and spin densities:
               1          2
     1  Cr   1.023506   3.831194
     2  O   -1.023506   0.168806
 Sum of Mulliken charges =  -0.00000   4.00000

 Dipole moment (field-independent basis, Debye):
    X=              0.0000    Y=              0.0000    Z=              4.5429  Tot=              4.5429
 Quadrupole moment (field-independent basis, Debye-Ang):
   XX=            -20.7006   YY=            -19.6100   ZZ=            -24.2596
   XY=              0.0000   XZ=              0.0000   YZ=              0.0000

 \\#P ROCCSD(T)=(maxcyc=150, Full, SaveAmplitudes, ReadAmplitudes)/Gen
 SD=-102.8768519\CCSD(T)=-102.9253911\RMSD=6.699e-09\PG=C*V [C*(O1Cr1)]
 Normal termination of Gaussian 16 at Tue Mar 13 04:11:07 2018.
