 Gaussian 16, Revision A.03,
 Gaussian 16:  ES64L-G16RevA.03 25-Dec-2016

 ----------------------------------------------------------------------
 #P ROCCSD(T)=(maxcyc=150, Full, SaveAmplitudes, ReadAmplitudes)/Gen 5d
  7f SCF=(maxcycles=300) Integral(NoXCTest) MaxDisk=500GB Pop=Regular P
 seudo=Read Guess=Read IOp(5/15=2)
 ----------------------------------------------------------------------

 ---
 CrH
 ---
 Symbolic Z-matrix:
 Charge =  0 Multiplicity = 6

                         Standard orientation:
 ---------------------------------------------------------------------
 Center     Atomic      Atomic             Coordinates (Angstroms)
 Number     Number       Type             X           Y           Z
 ---------------------------------------------------------------------
      1         24           0        0.000000    0.000000    0.072000
      2          1           0        0.000000    0.000000   -1.728000
 ---------------------------------------------------------------------

 SCF Done:  E(ROHF) =  -86.8807443182     A.U. after   28 cycles
 E2 =    -0.5316940009D+00 EUMP2 =    -0.87412438319084D+02
 CCSD(T)
 CCSD(T)= -0.87461736308D+02

 The electronic state is 6-SG.
 Alpha  occ. eigenvalues --   -3.75943  -2.45875  -2.45875  -2.41039  -0.56147
 Alpha  occ. eigenvalues --   -0.56147  -0.52777  -0.52777  -0.39711  -0.26349
 Alpha virt. eigenvalues --    0.01243   0.01243   0.02267   0.02581   0.05473
 Alpha virt. eigenvalues --    0.05473   0.05721   0.07576   0.07576   0.08032
 Alpha virt. eigenvalues --    0.08032   0.08971   0.10390   0.17453   0.20872

 Mulliken charges and spin densities:
               1          2
     1  Cr   0.415274   4.978796
     2  H   -0.415274   0.021204
 Sum of Mulliken charges =  -0.00000   5.00000

 Dipole moment (field-independent basis, Debye):
    X=              0.0000    Y=              0.0000    Z=              2.4253  Tot=              2.4253
 Quadrupole moment (field-independent basis, Debye-Ang):
   XX=            -16.9981   YY=            -16.9981   ZZ=            -25.0128
   XY=              0.0000   XZ=              0.0000   YZ=              0.0000

 \\#P ROCCSD(T)=(maxcyc=150, Full, SaveAmplitudes, ReadAmplitudes)/Gen
 07\CCSD=-87.4454575\CCSD(T)=-87.4617363\RMSD=1.942e-09\PG=C*V [C*(H1Cr
 Normal termination of Gaussian 16 at Mon Feb 26 13:04:48 2018.
