 Gaussian 16, Revision A.03,
 Gaussian 16:  ES64L-G16RevA.03 25-Dec-2016

 ----------------------------------------------------------------------
 #P ROCCSD(T)=(maxcyc=150, Full, SaveAmplitudes, ReadAmplitudes)/Gen 5d
  7f SCF=(maxcycles=300) Integral(NoXCTest) MaxDisk=500GB Pop=Regular P
 seudo=Read Guess=Read IOp(5/15=2)
 ----------------------------------------------------------------------

 ---
 MnH
 ---
 Symbolic Z-matrix:
 Charge =  0 Multiplicity = 7

                         Standard orientation:
 ---------------------------------------------------------------------
 Center     Atomic      Atomic             Coordinates (Angstroms)
 Number     Number       Type             X           Y           Z
 ---------------------------------------------------------------------
      1         25           0        0.000000    0.000000    0.038462
      2          1           0        0.000000    0.000000   -0.961538
 ---------------------------------------------------------------------

 SCF Done:  E(ROHF) =  -103.952553443     A.U. after   32 cycles
 E2 =    -0.6233132966D+00 EUMP2 =    -0.10457586673931D+03
 CCSD(T)
 CCSD(T)= -0.10458794859D+03

 The electronic state is 7-SG.
 Alpha  occ. eigenvalues --   -4.17160  -2.77715  -2.75161  -2.75161  -0.72027
 Alpha  occ. eigenvalues --   -0.65003  -0.65003  -0.63772  -0.63772  -0.39528
 Alpha  occ. eigenvalues --   -0.21298
 Alpha virt. eigenvalues --    0.01239   0.01239   0.01912   0.03504   0.05714
 Alpha virt. eigenvalues --    0.05714   0.08428   0.08464   0.08464   0.08759
 Alpha virt. eigenvalues --    0.08759   0.08830   0.14336   0.22421   0.22421

 Mulliken charges and spin densities:
               1          2
     1  Mn   0.576811   5.909978
     2  H   -0.576811   0.090022
 Sum of Mulliken charges =  -0.00000   6.00000

 Dipole moment (field-independent basis, Debye):
    X=              0.0000    Y=              0.0000    Z=             -1.2891  Tot=              1.2891
 Quadrupole moment (field-independent basis, Debye-Ang):
   XX=            -16.1455   YY=            -16.1455   ZZ=            -25.8236
   XY=              0.0000   XZ=              0.0000   YZ=              0.0000

 \\#P ROCCSD(T)=(maxcyc=150, Full, SaveAmplitudes, ReadAmplitudes)/Gen
 5702692\CCSD=-104.5696294\CCSD(T)=-104.5879486\RMSD=2.037e-09\PG=C*V [
 Normal termination of Gaussian 16 at Sun Feb 25 17:30:31 2018.
