 Gaussian 16, Revision A.03,
 Gaussian 16:  ES64L-G16RevA.03 25-Dec-2016

 ----------------------------------------------------------------------
 #P ROCCSD(T)=(maxcyc=150, Full, SaveAmplitudes, ReadAmplitudes)/Gen 5d
  7f SCF=(maxcycles=300, VShift=400) Integral(NoXCTest) MaxDisk=500GB P
 op=Full Pseudo=Read Guess=Read IOp(5/15=2)
 ----------------------------------------------------------------------

 ---
 CrO
 ---
 Symbolic Z-matrix:
 Charge =  0 Multiplicity = 5

                         Standard orientation:
 ---------------------------------------------------------------------
 Center     Atomic      Atomic             Coordinates (Angstroms)
 Number     Number       Type             X           Y           Z
 ---------------------------------------------------------------------
      1         24           0        0.000000    0.000000    0.450000
      2          8           0        0.000000    0.000000   -1.350000
 ---------------------------------------------------------------------

 SCF Done:  E(ROHF) =  -101.697473707     A.U. after   95 cycles
 E2 =    -0.8532844620D+00 EUMP2 =    -0.10255075816878D+03
 CCSD(T)
 CCSD(T)= -0.10260473826D+03

 Unable to determine electronic state:  an orbital has unidentified symmetry.
 Alpha  occ. eigenvalues --   -3.71965  -2.48828  -2.43887  -2.43080  -1.09720
 Alpha  occ. eigenvalues --   -0.57347  -0.55867  -0.55198  -0.52085  -0.34110
 Alpha  occ. eigenvalues --   -0.32770  -0.32632
 Alpha virt. eigenvalues --   -0.04649   0.00705   0.01364   0.01765   0.03725
 Alpha virt. eigenvalues --    0.04977   0.06204   0.07410   0.07417   0.07631
 Alpha virt. eigenvalues --    0.08349   0.08732   0.12948   0.13861   0.15555

 Mulliken charges and spin densities:
               1          2
     1  Cr   1.170789   3.939175
     2  O   -1.170789   0.060825
 Sum of Mulliken charges =  -0.00000   4.00000

 Dipole moment (field-independent basis, Debye):
    X=              0.0000    Y=              0.0000    Z=              9.7998  Tot=              9.7998
 Quadrupole moment (field-independent basis, Debye-Ang):
   XX=            -19.6044   YY=            -18.7687   ZZ=            -24.0383
   XY=              0.0000   XZ=              0.0000   YZ=              0.0000

 \\#P ROCCSD(T)=(maxcyc=150, Full, SaveAmplitudes, ReadAmplitudes)/Gen
 629398\CCSD=-102.5527053\CCSD(T)=-102.6047383\RMSD=9.514e-09\PG=C*V [C
 Normal termination of Gaussian 16 at Thu Apr 19 08:01:32 2018.
