 Gaussian 16, Revision A.03,
 Gaussian 16:  ES64L-G16RevA.03 25-Dec-2016

 ----------------------------------------------------------------------
 #P ROCCSD(T)=(maxcyc=150, Full)/Gen 5d 7f SCF=(maxcycles=300) Integral
 (NoXCTest) MaxDisk=500GB Pop=Regular Pseudo=Read Guess=Read
 ----------------------------------------------------------------------

 ---
 ScH
 ---
 Symbolic Z-matrix:
 Charge =  0 Multiplicity = 1

                         Standard orientation:
 ---------------------------------------------------------------------
 Center     Atomic      Atomic             Coordinates (Angstroms)
 Number     Number       Type             X           Y           Z
 ---------------------------------------------------------------------
      1         21           0        0.000000    0.000000    0.045455
      2          1           0        0.000000    0.000000   -0.954545
 ---------------------------------------------------------------------

 SCF Done:  E(ROHF) =  -46.3877652398     A.U. after   10 cycles
 E2 =    -0.4327949392D+00 EUMP2 =    -0.46820560178918D+02
 CCSD(T)
 CCSD(T)= -0.46857664226D+02

 The electronic state is 1-SG.
 Alpha  occ. eigenvalues --   -2.60319  -1.66737  -1.56520  -1.56520  -0.47775
 Alpha  occ. eigenvalues --   -0.21272
 Alpha virt. eigenvalues --    0.01203   0.01344   0.01344   0.02147   0.02883
 Alpha virt. eigenvalues --    0.02883   0.02906   0.02907   0.02907   0.04367
 Alpha virt. eigenvalues --    0.04527   0.04527   0.08276   0.08276   0.08443

 Mulliken charges and spin densities:
               1          2
     1  Sc   0.294493   0.000000
     2  H   -0.294493   0.000000
 Sum of Mulliken charges =   0.00000   0.00000

 Dipole moment (field-independent basis, Debye):
    X=              0.0000    Y=              0.0000    Z=              1.2916  Tot=              1.2916
 Quadrupole moment (field-independent basis, Debye-Ang):
   XX=            -23.5192   YY=            -23.5192   ZZ=            -22.0939
   XY=              0.0000   XZ=              0.0000   YZ=              0.0000

 P ROCCSD(T)=(maxcyc=150, Full)/Gen 5d 7f SCF=(maxcycles=300) Integral(
 05602\MP4SDQ=-46.839895\CCSD=-46.839739\CCSD(T)=-46.8576642\RMSD=6.980
 Normal termination of Gaussian 16 at Mon Feb 12 15:24:14 2018.
