 Gaussian 16, Revision A.03,
 Gaussian 16:  ES64L-G16RevA.03 25-Dec-2016

 ----------------------------------------------------------------------
 #P ROCCSD(T)=(maxcyc=150, Full, SaveAmplitudes, ReadAmplitudes)/Gen 5d
  7f SCF=(maxcycles=300) Integral(NoXCTest) MaxDisk=500GB Pop=Regular P
 seudo=Read Guess=Read IOp(5/15=2)
 ----------------------------------------------------------------------

 ---
 ScO
 ---
 Symbolic Z-matrix:
 Charge =  0 Multiplicity = 2

                         Standard orientation:
 ---------------------------------------------------------------------
 Center     Atomic      Atomic             Coordinates (Angstroms)
 Number     Number       Type             X           Y           Z
 ---------------------------------------------------------------------
      1         21           0        0.000000    0.000000    0.524138
      2          8           0        0.000000    0.000000   -1.375862
 ---------------------------------------------------------------------

 SCF Done:  E(ROHF) =  -62.0208625657     A.U. after   17 cycles
 E2 =    -0.6933882299D+00 EUMP2 =    -0.62714250795512D+02
 CCSD(T)
 CCSD(T)= -0.62746704118D+02

 The electronic state is 2-SG.
 Alpha  occ. eigenvalues --   -2.77060  -1.68047  -1.67991  -1.67991  -1.10945
 Alpha  occ. eigenvalues --   -0.40255  -0.36412  -0.36412  -0.27484
 Alpha virt. eigenvalues --   -0.00902  -0.00902   0.00917   0.01938   0.03035
 Alpha virt. eigenvalues --    0.03035   0.03351   0.03351   0.04117   0.04316
 Alpha virt. eigenvalues --    0.04316   0.04903   0.06098   0.06098   0.09954

 Mulliken charges and spin densities:
               1          2
     1  Sc   1.216827   0.977118
     2  O   -1.216827   0.022882
 Sum of Mulliken charges =  -0.00000   1.00000

 Dipole moment (field-independent basis, Debye):
    X=              0.0000    Y=              0.0000    Z=              6.6409  Tot=              6.6409
 Quadrupole moment (field-independent basis, Debye-Ang):
   XX=            -21.9611   YY=            -21.9611   ZZ=            -34.2809
   XY=              0.0000   XZ=              0.0000   YZ=              0.0000

 \\#P ROCCSD(T)=(maxcyc=150, Full, SaveAmplitudes, ReadAmplitudes)/Gen
 43\CCSD=-62.7000976\CCSD(T)=-62.7467041\RMSD=6.823e-09\PG=C*V [C*(O1Sc
 Normal termination of Gaussian 16 at Wed Feb 21 06:46:59 2018.
