 Gaussian 16, Revision A.03,
 Gaussian 16:  ES64L-G16RevA.03 25-Dec-2016

 ----------------------------------------------------------------------
 #P ROCCSD(T)=(MaxCyc=150, Full)/Gen SCF=(maxcycle=400) Pseudo=Read Int
 egral(NoXCTest) Pop=Regular MaxDisk=500GB Guess=Read IOp(5/15=2)
 ----------------------------------------------------------------------

 ---
 ZnO
 ---
 Symbolic Z-matrix:
 Charge =  0 Multiplicity = 1

                         Standard orientation:
 ---------------------------------------------------------------------
 Center     Atomic      Atomic             Coordinates (Angstroms)
 Number     Number       Type             X           Y           Z
 ---------------------------------------------------------------------
      1         30           0        0.000000    0.000000    0.357895
      2          8           0        0.000000    0.000000   -1.342105
 ---------------------------------------------------------------------

 SCF Done:  E(ROHF) =  -241.667743636     A.U. after    1 cycles
 E2 =    -0.1345762373D+01 EUMP2 =    -0.24301350600944D+03
 CCSD(T)
 CCSD(T)= -0.24296054752D+03

 The electronic state is 1-SG.
 Alpha  occ. eigenvalues --   -5.60264  -3.89714  -3.89588  -3.89588  -1.14812
 Alpha  occ. eigenvalues --   -0.82286  -0.82286  -0.81777  -0.81777  -0.79938
 Alpha  occ. eigenvalues --   -0.39912  -0.39912  -0.37535
 Alpha virt. eigenvalues --   -0.04922   0.02586   0.02586   0.02591   0.04683
 Alpha virt. eigenvalues --    0.08735   0.08735   0.13289   0.17451   0.22032
 Alpha virt. eigenvalues --    0.23682   0.23682   0.24625   0.24625   0.29748

 Mulliken charges and spin densities:
               1          2
     1  Zn   1.026265   0.000000
     2  O   -1.026265   0.000000
 Sum of Mulliken charges =  -0.00000   0.00000

 Dipole moment (field-independent basis, Debye):
    X=              0.0000    Y=              0.0000    Z=              7.1552  Tot=              7.1552
 Quadrupole moment (field-independent basis, Debye-Ang):
   XX=            -18.0293   YY=            -18.0293   ZZ=            -21.5382
   XY=              0.0000   XZ=              0.0000   YZ=              0.0000

 P ROCCSD(T)=(MaxCyc=150, Full)/Gen SCF=(maxcycle=400) Pseudo=Read Inte
 0=-243.013506\MP4SDQ=-242.9537444\CCSD=-242.9115142\CCSD(T)=-242.96054
 Normal termination of Gaussian 16 at Tue Mar 27 11:38:27 2018.
