 Gaussian 16, Revision A.03,
 Gaussian 16:  ES64L-G16RevA.03 25-Dec-2016

 ----------------------------------------------------------------------
 #P ROCCSD(T)=(MaxCyc=150, Full)/Gen SCF=(maxcycle=400) Pseudo=Read Int
 egral(NoXCTest) Pop=Regular MaxDisk=500GB Guess=Read IOp(5/15=2)
 ----------------------------------------------------------------------

 ---
 ZnO
 ---
 Symbolic Z-matrix:
 Charge =  0 Multiplicity = 1

                         Standard orientation:
 ---------------------------------------------------------------------
 Center     Atomic      Atomic             Coordinates (Angstroms)
 Number     Number       Type             X           Y           Z
 ---------------------------------------------------------------------
      1         30           0        0.000000    0.000000    0.357895
      2          8           0        0.000000    0.000000   -1.342105
 ---------------------------------------------------------------------

 SCF Done:  E(ROHF) =  -241.670887067     A.U. after   11 cycles
 E2 =    -0.1413528140D+01 EUMP2 =    -0.24308441520717D+03
 CCSD(T)
 CCSD(T)= -0.24302894786D+03

 The electronic state is 1-SG.
 Alpha  occ. eigenvalues --   -5.60224  -3.89683  -3.89563  -3.89563  -1.14770
 Alpha  occ. eigenvalues --   -0.82276  -0.82276  -0.81772  -0.81772  -0.79924
 Alpha  occ. eigenvalues --   -0.39921  -0.39921  -0.37516
 Alpha virt. eigenvalues --   -0.04908   0.02352   0.02352   0.02368   0.04198
 Alpha virt. eigenvalues --    0.07615   0.07615   0.11876   0.16415   0.17524
 Alpha virt. eigenvalues --    0.17748   0.17748   0.20532   0.20532   0.23123

 Mulliken charges and spin densities:
               1          2
     1  Zn   0.949881   0.000000
     2  O   -0.949881   0.000000
 Sum of Mulliken charges =  -0.00000   0.00000

 Dipole moment (field-independent basis, Debye):
    X=              0.0000    Y=              0.0000    Z=              7.1424  Tot=              7.1424
 Quadrupole moment (field-independent basis, Debye-Ang):
   XX=            -18.0158   YY=            -18.0158   ZZ=            -21.5379
   XY=              0.0000   XZ=              0.0000   YZ=              0.0000

 P ROCCSD(T)=(MaxCyc=150, Full)/Gen SCF=(maxcycle=400) Pseudo=Read Inte
 2-0=-243.0844152\MP4SDQ=-243.0186809\CCSD=-242.9773491\CCSD(T)=-243.02
 Normal termination of Gaussian 16 at Tue Mar 27 13:53:10 2018.
