 Gaussian 16, Revision A.03,
 Gaussian 16:  ES64L-G16RevA.03 25-Dec-2016

 ----------------------------------------------------------------------
 #P ROCCSD(T)=(maxcyc=150, Full, SaveAmplitudes, ReadAmplitudes)/Gen 5d
  7f SCF=(maxcycles=300, VShift=400) Integral(NoXCTest) MaxDisk=500GB P
 op=Full Pseudo=Read Guess=Read IOp(5/15=2)
 ----------------------------------------------------------------------

 ---
 MnO
 ---
 Symbolic Z-matrix:
 Charge =  0 Multiplicity = 6

                         Standard orientation:
 ---------------------------------------------------------------------
 Center     Atomic      Atomic             Coordinates (Angstroms)
 Number     Number       Type             X           Y           Z
 ---------------------------------------------------------------------
      1         25           0        0.000000    0.000000    0.387879
      2          8           0        0.000000    0.000000   -1.212121
 ---------------------------------------------------------------------

 SCF Done:  E(ROHF) =  -118.896019812     A.U. after   40 cycles
 E2 =    -0.9105947236D+00 EUMP2 =    -0.11980661453552D+03
 CCSD(T)
 CCSD(T)= -0.11983326216D+03

 The electronic state is 6-SG.
 Alpha  occ. eigenvalues --   -4.12908  -2.74926  -2.74926  -2.74063  -1.14615
 Alpha  occ. eigenvalues --   -0.64593  -0.64593  -0.62697  -0.62697  -0.56701
 Alpha  occ. eigenvalues --   -0.35153  -0.35153  -0.34051
 Alpha virt. eigenvalues --   -0.03256   0.01790   0.01790   0.02290   0.03835
 Alpha virt. eigenvalues --    0.06925   0.06925   0.08323   0.08555   0.08555
 Alpha virt. eigenvalues --    0.09674   0.09674   0.13719   0.13928   0.23362

 Mulliken charges and spin densities:
               1          2
     1  Mn   1.134488   4.851769
     2  O   -1.134488   0.148231
 Sum of Mulliken charges =  -0.00000   5.00000

 Dipole moment (field-independent basis, Debye):
    X=              0.0000    Y=              0.0000    Z=              8.2430  Tot=              8.2430
 Quadrupole moment (field-independent basis, Debye-Ang):
   XX=            -18.8358   YY=            -18.8358   ZZ=            -23.0435
   XY=              0.0000   XZ=              0.0000   YZ=              0.0000

 \\#P ROCCSD(T)=(maxcyc=150, Full, SaveAmplitudes, ReadAmplitudes)/Gen
 4SDQ=-119.8014096\CCSD=-119.7914797\CCSD(T)=-119.8332622\RMSD=9.504e-0
 Normal termination of Gaussian 16 at Sat May  5 07:12:29 2018.
