 Gaussian 16, Revision A.03,
 Gaussian 16:  ES64L-G16RevA.03 25-Dec-2016

 ----------------------------------------------------------------------
 #P ROCCSD(T)=(maxcyc=150, Full, SaveAmplitudes, ReadAmplitudes)/Gen 5d
  7f SCF=(maxcycles=300) Integral(NoXCTest) MaxDisk=500GB Pop=Regular P
 seudo=Read Guess=Read IOp(5/15=2)
 ----------------------------------------------------------------------

 ---
 TiO
 ---
 Symbolic Z-matrix:
 Charge =  0 Multiplicity = 3

                         Standard orientation:
 ---------------------------------------------------------------------
 Center     Atomic      Atomic             Coordinates (Angstroms)
 Number     Number       Type             X           Y           Z
 ---------------------------------------------------------------------
      1         22           0        0.000000    0.000000    0.453333
      2          8           0        0.000000    0.000000   -1.246667
 ---------------------------------------------------------------------

 SCF Done:  E(ROHF) =  -73.3941121225     A.U. after   21 cycles
 E2 =    -0.7461220303D+00 EUMP2 =    -0.74140234152738D+02
 CCSD(T)
 CCSD(T)= -0.74172802013D+02

 Unable to determine electronic state:  an orbital has unidentified symmetry.
 Alpha  occ. eigenvalues --   -3.04642  -1.93432  -1.93432  -1.90459  -1.15501
 Alpha  occ. eigenvalues --   -0.48281  -0.45078  -0.42102  -0.42102  -0.27551
 Alpha virt. eigenvalues --   -0.00022  -0.00022   0.01234   0.02442   0.03846
 Alpha virt. eigenvalues --    0.03846   0.04511   0.04836   0.05130   0.05895
 Alpha virt. eigenvalues --    0.05895   0.06367   0.09589   0.11033   0.13043

 Mulliken charges and spin densities:
               1          2
     1  Ti   0.924575   1.992056
     2  O   -0.924575   0.007944
 Sum of Mulliken charges =  -0.00000   2.00000

 Dipole moment (field-independent basis, Debye):
    X=              0.0000    Y=              0.0000    Z=              5.1359  Tot=              5.1359
 Quadrupole moment (field-independent basis, Debye-Ang):
   XX=            -21.5262   YY=            -21.5262   ZZ=            -29.7301
   XY=              0.0000   XZ=              0.0000   YZ=              0.0000

 \\#P ROCCSD(T)=(maxcyc=150, Full, SaveAmplitudes, ReadAmplitudes)/Gen
 1246229\CCSD(T)=-74.172802\RMSD=6.277e-09\PG=C*V [C*(O1Ti1)]\\@
 Normal termination of Gaussian 16 at Sun Mar 11 06:09:06 2018.
