 Gaussian 16, Revision A.03,
 Gaussian 16:  ES64L-G16RevA.03 25-Dec-2016

 ----------------------------------------------------------------------
 #P ROCCSD(T)=(maxcyc=150, Full, SaveAmplitudes, ReadAmplitudes)/Gen 5d
  7f SCF=(maxcycles=300) Integral(NoXCTest) MaxDisk=500GB Pop=Regular P
 seudo=Read Guess=Read IOp(5/15=2)
 ----------------------------------------------------------------------

 ---
 TiO
 ---
 Symbolic Z-matrix:
 Charge =  0 Multiplicity = 3

                         Standard orientation:
 ---------------------------------------------------------------------
 Center     Atomic      Atomic             Coordinates (Angstroms)
 Number     Number       Type             X           Y           Z
 ---------------------------------------------------------------------
      1         22           0        0.000000    0.000000    0.320000
      2          8           0        0.000000    0.000000   -0.880000
 ---------------------------------------------------------------------

 SCF Done:  E(ROHF) =  -73.2337852445     A.U. after   27 cycles
 E2 =    -0.7284804929D+00 EUMP2 =    -0.73962265737436D+02
 CCSD(T)
 CCSD(T)= -0.73989114222D+02

 Unable to determine electronic state:  an orbital has unidentified symmetry.
 Alpha  occ. eigenvalues --   -2.97893  -2.00141  -1.79175  -1.79175  -1.12114
 Alpha  occ. eigenvalues --   -0.65471  -0.65471  -0.54266  -0.32307  -0.20067
 Alpha virt. eigenvalues --    0.01263   0.01263   0.02096   0.02807   0.04903
 Alpha virt. eigenvalues --    0.04903   0.05028   0.05201   0.05366   0.05752
 Alpha virt. eigenvalues --    0.05752   0.08503   0.12373   0.14373   0.14821

 Mulliken charges and spin densities:
               1          2
     1  Ti   0.603445   2.059299
     2  O   -0.603445  -0.059299
 Sum of Mulliken charges =  -0.00000   2.00000

 Dipole moment (field-independent basis, Debye):
    X=              0.0000    Y=              0.0000    Z=             -0.6878  Tot=              0.6878
 Quadrupole moment (field-independent basis, Debye-Ang):
   XX=            -22.4691   YY=            -22.4691   ZZ=            -26.4791
   XY=              0.0000   XZ=              0.0000   YZ=              0.0000

 \\#P ROCCSD(T)=(maxcyc=150, Full, SaveAmplitudes, ReadAmplitudes)/Gen
 9575955\CCSD(T)=-73.9891142\RMSD=2.779e-09\PG=C*V [C*(O1Ti1)]\\@
 Normal termination of Gaussian 16 at Mon Mar 12 14:21:03 2018.
