 Gaussian 16, Revision A.03,
 Gaussian 16:  ES64L-G16RevA.03 25-Dec-2016

 ----------------------------------------------------------------------
 #P ROCCSD(T)=(maxcyc=150, Full, SaveAmplitudes, ReadAmplitudes)/Gen 5d
  7f SCF=(maxcycles=300) Integral(NoXCTest) MaxDisk=500GB Pop=Regular P
 seudo=Read Guess=Read IOp(5/15=2)
 ----------------------------------------------------------------------

 ---
 ScO
 ---
 Symbolic Z-matrix:
 Charge =  0 Multiplicity = 2

                         Standard orientation:
 ---------------------------------------------------------------------
 Center     Atomic      Atomic             Coordinates (Angstroms)
 Number     Number       Type             X           Y           Z
 ---------------------------------------------------------------------
      1         21           0        0.000000    0.000000    0.524138
      2          8           0        0.000000    0.000000   -1.375862
 ---------------------------------------------------------------------

 SCF Done:  E(ROHF) =  -62.0263931156     A.U. after   16 cycles
 E2 =    -0.6902880013D+00 EUMP2 =    -0.62716681116942D+02
 CCSD(T)
 CCSD(T)= -0.62749058215D+02

 The electronic state is 2-SG.
 Alpha  occ. eigenvalues --   -2.74984  -1.68858  -1.68788  -1.68788  -1.10938
 Alpha  occ. eigenvalues --   -0.40245  -0.36415  -0.36415  -0.27587
 Alpha virt. eigenvalues --   -0.00856  -0.00856   0.00869   0.01968   0.03046
 Alpha virt. eigenvalues --    0.03046   0.03359   0.03359   0.04099   0.04319
 Alpha virt. eigenvalues --    0.04319   0.04904   0.06108   0.06108   0.09918

 Mulliken charges and spin densities:
               1          2
     1  Sc   1.210268   0.976659
     2  O   -1.210268   0.023341
 Sum of Mulliken charges =  -0.00000   1.00000

 Dipole moment (field-independent basis, Debye):
    X=              0.0000    Y=              0.0000    Z=              6.7088  Tot=              6.7088
 Quadrupole moment (field-independent basis, Debye-Ang):
   XX=            -21.9370   YY=            -21.9370   ZZ=            -33.9191
   XY=              0.0000   XZ=              0.0000   YZ=              0.0000

 \\#P ROCCSD(T)=(maxcyc=150, Full, SaveAmplitudes, ReadAmplitudes)/Gen
 59\CCSD=-62.70199\CCSD(T)=-62.7490582\RMSD=4.220e-09\PG=C*V [C*(O1Sc1)
 Normal termination of Gaussian 16 at Wed Feb 21 06:55:20 2018.
