 Gaussian 16, Revision A.03,
 Gaussian 16:  ES64L-G16RevA.03 25-Dec-2016

 ----------------------------------------------------------------------
 #P ROCCSD(T)=(MaxCyc=150, Full)/Gen SCF=(maxcycle=400) Integral(DKHSO,
  NoXCTest) Pop=Regular MaxDisk=500GB
 ----------------------------------------------------------------------

 --
 Zn
 --
 Symbolic Z-matrix:
 Charge =  0 Multiplicity = 1

                         Standard orientation:
 ---------------------------------------------------------------------
 Center     Atomic      Atomic             Coordinates (Angstroms)
 Number     Number       Type             X           Y           Z
 ---------------------------------------------------------------------
      1         30           0        0.000000    0.000000    0.000000
 ---------------------------------------------------------------------

 SCF Done:  E(ROHF) =  -1794.27846236     A.U. after   11 cycles
 E2 =    -0.1586776672D+01 EUMP2 =    -0.17958652390369D+04
 CCSD(T)
 CCSD(T)= -0.17957839886D+04

 Unable to determine electronic state:  an orbital has unidentified symmetry.
 Alpha  occ. eigenvalues -- -357.56365 -45.33002 -39.13222 -39.13222 -39.13222
 Alpha  occ. eigenvalues --   -5.79783  -3.87556  -3.87556  -3.87556  -0.76142
 Alpha  occ. eigenvalues --   -0.76142  -0.76142  -0.76142  -0.76142  -0.29854
 Alpha virt. eigenvalues --    0.02397   0.02397   0.02397   0.02659   0.07440
 Alpha virt. eigenvalues --    0.07440   0.07440   0.13210   0.16241   0.16241
 Alpha virt. eigenvalues --    0.16241   0.16241   0.16241   0.23095   0.23095

 Mulliken charges and spin densities:
               1          2
     1  Zn  -0.000000   0.000000
 Sum of Mulliken charges =  -0.00000   0.00000

 Dipole moment (field-independent basis, Debye):
    X=              0.0000    Y=             -0.0000    Z=              0.0000  Tot=              0.0000
 Quadrupole moment (field-independent basis, Debye-Ang):
   XX=            -15.4204   YY=            -15.4204   ZZ=            -15.4204
   XY=             -0.0000   XZ=              0.0000   YZ=             -0.0000

 ROCCSD(T)=(MaxCyc=150, Full)/Gen SCF=(maxcycle=400) Integral(DKHSO, No
 D=-1795.75152\CCSD(T)=-1795.7839886\RMSD=8.445e-10\PG=OH [O(Zn1)]\\@
 Normal termination of Gaussian 16 at Sat May  5 00:12:16 2018.
