 Gaussian 16, Revision A.03,
 Gaussian 16:  ES64L-G16RevA.03 25-Dec-2016

 ----------------------------------------------------------------------
 #P ROCCSD(T)=(MaxCyc=150, Full)/Gen SCF=(maxcycle=400) Integral(DKHSO,
  NoXCTest) Pop=Regular MaxDisk=500GB
 ----------------------------------------------------------------------

 --
 Zn
 --
 Symbolic Z-matrix:
 Charge =  0 Multiplicity = 1

                         Standard orientation:
 ---------------------------------------------------------------------
 Center     Atomic      Atomic             Coordinates (Angstroms)
 Number     Number       Type             X           Y           Z
 ---------------------------------------------------------------------
      1         30           0        0.000000    0.000000    0.000000
 ---------------------------------------------------------------------

 SCF Done:  E(ROHF) =  -1794.27612389     A.U. after   11 cycles
 E2 =    -0.1473825209D+01 EUMP2 =    -0.17957499491013D+04
 CCSD(T)
 CCSD(T)= -0.17956709896D+04

 The electronic state is 1-A1G.
 Alpha  occ. eigenvalues -- -357.56351 -45.33021 -39.13245 -39.13245 -39.13245
 Alpha  occ. eigenvalues --   -5.79794  -3.87568  -3.87568  -3.87568  -0.76140
 Alpha  occ. eigenvalues --   -0.76140  -0.76140  -0.76140  -0.76140  -0.29860
 Alpha virt. eigenvalues --    0.02679   0.02679   0.02679   0.03354   0.08981
 Alpha virt. eigenvalues --    0.08981   0.08981   0.18061   0.26460   0.26460
 Alpha virt. eigenvalues --    0.26460   0.26460   0.26460   0.32318   0.32318

 Mulliken charges and spin densities:
               1          2
     1  Zn  -0.000000   0.000000
 Sum of Mulliken charges =  -0.00000   0.00000

 Dipole moment (field-independent basis, Debye):
    X=              0.0000    Y=              0.0000    Z=              0.0000  Tot=              0.0000
 Quadrupole moment (field-independent basis, Debye-Ang):
   XX=            -15.4217   YY=            -15.4217   ZZ=            -15.4217
   XY=             -0.0000   XZ=             -0.0000   YZ=              0.0000

 ROCCSD(T)=(MaxCyc=150, Full)/Gen SCF=(maxcycle=400) Integral(DKHSO, No
 SD=-1795.6413897\CCSD(T)=-1795.6709896\RMSD=2.039e-09\PG=OH [O(Zn1)]\\
 Normal termination of Gaussian 16 at Thu Mar 29 05:15:36 2018.
