 Gaussian 16, Revision A.03,
 Gaussian 16:  ES64L-G16RevA.03 25-Dec-2016

 ----------------------------------------------------------------------
 #P ROCCSD(T)=(maxcyc=150, Full, SaveAmplitudes, ReadAmplitudes)/Gen 5d
  7f SCF=(maxcycles=300) Integral(NoXCTest) MaxDisk=500GB Pop=Regular P
 seudo=Read Guess=Read
 ----------------------------------------------------------------------

 ---
 ScO
 ---
 Symbolic Z-matrix:
 Charge =  0 Multiplicity = 2

                         Standard orientation:
 ---------------------------------------------------------------------
 Center     Atomic      Atomic             Coordinates (Angstroms)
 Number     Number       Type             X           Y           Z
 ---------------------------------------------------------------------
      1         21           0        0.000000    0.000000    0.386207
      2          8           0        0.000000    0.000000   -1.013793
 ---------------------------------------------------------------------

 SCF Done:  E(ROHF) =  -61.8634413568     A.U. after   17 cycles
 E2 =    -0.7024029536D+00 EUMP2 =    -0.62565844310400D+02
 CCSD(T)
 CCSD(T)= -0.62590786865D+02

 The electronic state is 2-SG.
 Alpha  occ. eigenvalues --   -2.58166  -1.71866  -1.55320  -1.55320  -1.09454
 Alpha  occ. eigenvalues --   -0.52559  -0.52559  -0.46179  -0.20978
 Alpha virt. eigenvalues --    0.00804   0.00804   0.02024   0.02047   0.02789
 Alpha virt. eigenvalues --    0.02789   0.02941   0.02941   0.02971   0.03928
 Alpha virt. eigenvalues --    0.03928   0.06225   0.07894   0.07894   0.08891

 Mulliken charges and spin densities:
               1          2
     1  Sc   1.097435   1.002444
     2  O   -1.097435  -0.002444
 Sum of Mulliken charges =  -0.00000   1.00000

 Dipole moment (field-independent basis, Debye):
    X=              0.0000    Y=              0.0000    Z=              1.4859  Tot=              1.4859
 Quadrupole moment (field-independent basis, Debye-Ang):
   XX=            -22.3110   YY=            -22.3110   ZZ=            -30.3478
   XY=              0.0000   XZ=              0.0000   YZ=              0.0000

 \\#P ROCCSD(T)=(maxcyc=150, Full, SaveAmplitudes, ReadAmplitudes)/Gen
 634414\PMP2-0=-62.5658443\CCSD=-62.5565265\CCSD(T)=-62.5907869\RMSD=3.
 Normal termination of Gaussian 16 at Wed Feb 21 00:56:45 2018.
