 Gaussian 16, Revision A.03,
 Gaussian 16:  ES64L-G16RevA.03 25-Dec-2016

 ----------------------------------------------------------------------
 #P ROCCSD(T)=(maxcyc=150, Full)/Gen 5d 7f SCF=(maxcycles=300) Integral
 (NoXCTest) MaxDisk=500GB Pop=Regular Pseudo=Read IOp(5/15=2) Guess=Rea
 d
 ----------------------------------------------------------------------

 ---
 ScH
 ---
 Symbolic Z-matrix:
 Charge =  0 Multiplicity = 1

                         Standard orientation:
 ---------------------------------------------------------------------
 Center     Atomic      Atomic             Coordinates (Angstroms)
 Number     Number       Type             X           Y           Z
 ---------------------------------------------------------------------
      1         21           0        0.000000    0.000000    0.045455
      2          1           0        0.000000    0.000000   -0.954545
 ---------------------------------------------------------------------

 SCF Done:  E(ROHF) =  -46.5239070337     A.U. after    9 cycles
 E2 =    -0.4413735593D+00 EUMP2 =    -0.46965280592930D+02
 CCSD(T)
 CCSD(T)= -0.46999893428D+02

 The electronic state is 1-SG.
 Alpha  occ. eigenvalues --   -2.64210  -1.66573  -1.56309  -1.56309  -0.47599
 Alpha  occ. eigenvalues --   -0.21394
 Alpha virt. eigenvalues --    0.01208   0.01359   0.01359   0.01709   0.02606
 Alpha virt. eigenvalues --    0.02606   0.02618   0.02644   0.02644   0.04044
 Alpha virt. eigenvalues --    0.04482   0.04482   0.07179   0.07447   0.07447

 Mulliken charges and spin densities:
               1          2
     1  Sc   0.146232   0.000000
     2  H   -0.146232   0.000000
 Sum of Mulliken charges =  -0.00000   0.00000

 Dipole moment (field-independent basis, Debye):
    X=              0.0000    Y=              0.0000    Z=              1.2486  Tot=              1.2486
 Quadrupole moment (field-independent basis, Debye-Ang):
   XX=            -23.3361   YY=            -23.3361   ZZ=            -21.8901
   XY=              0.0000   XZ=              0.0000   YZ=              0.0000

 P ROCCSD(T)=(maxcyc=150, Full)/Gen 5d 7f SCF=(maxcycles=300) Integral(
 2-0=-46.9652806\MP4SDQ=-46.9817763\CCSD=-46.981656\CCSD(T)=-46.9998934
 Normal termination of Gaussian 16 at Tue Feb 13 17:20:34 2018.
