 Gaussian 16, Revision A.03,
 Gaussian 16:  ES64L-G16RevA.03 25-Dec-2016

 ----------------------------------------------------------------------
 #P ROCCSD(T)=(MaxCyc=150, Full)/Gen SCF=(maxcycle=400) Pseudo=Read Int
 egral(NoXCTest) Pop=Regular MaxDisk=500GB Guess=Read IOp(5/15=2)
 ----------------------------------------------------------------------

 ---
 CuO
 ---
 Symbolic Z-matrix:
 Charge =  0 Multiplicity = 2

                         Standard orientation:
 ---------------------------------------------------------------------
 Center     Atomic      Atomic             Coordinates (Angstroms)
 Number     Number       Type             X           Y           Z
 ---------------------------------------------------------------------
      1         29           0        0.000000    0.000000    0.345946
      2          8           0        0.000000    0.000000   -1.254054
 ---------------------------------------------------------------------

 SCF Done:  E(ROHF) =  -211.932241202     A.U. after   20 cycles
 E2 =    -0.1290889997D+01 EUMP2 =    -0.21322313119828D+03
 CCSD(T)
 CCSD(T)= -0.21315607458D+03

 Unable to determine electronic state:  an orbital has unidentified symmetry.
 Alpha  occ. eigenvalues --   -5.27657  -3.48399  -3.47562  -3.47130  -1.26663
 Alpha  occ. eigenvalues --   -0.60981  -0.57506  -0.56545  -0.52964  -0.52962
 Alpha  occ. eigenvalues --   -0.47791  -0.42122  -0.39269
 Alpha virt. eigenvalues --   -0.00848   0.02941   0.03105   0.04034   0.04829
 Alpha virt. eigenvalues --    0.10597   0.10987   0.13703   0.19410   0.19744
 Alpha virt. eigenvalues --    0.19765   0.21142   0.21561   0.22592   0.26028

 Mulliken charges and spin densities:
               1          2
     1  Cu   0.845319   0.030779
     2  O   -0.845319   0.969221
 Sum of Mulliken charges =   0.00000   1.00000

 Dipole moment (field-independent basis, Debye):
    X=              0.0000    Y=              0.0000    Z=              5.2601  Tot=              5.2601
 Quadrupole moment (field-independent basis, Debye-Ang):
   XX=            -15.8361   YY=            -17.3694   ZZ=            -19.4305
   XY=              0.0000   XZ=              0.0000   YZ=              0.0000

 \\#P ROCCSD(T)=(MaxCyc=150, Full)/Gen SCF=(maxcycle=400) Pseudo=Read I
 .2231312\MP4SDQ=-213.187884\CCSD=-213.107879\CCSD(T)=-213.1560746\RMSD
 Normal termination of Gaussian 16 at Mon Mar 26 18:25:28 2018.
