 Gaussian 16, Revision A.03,
 Gaussian 16:  ES64L-G16RevA.03 25-Dec-2016

 ----------------------------------------------------------------------
 #P ROCCSD(T)=(MaxCyc=150, Full)/Gen SCF=(maxcycle=400) Pseudo=Read Int
 egral(NoXCTest) Pop=Regular MaxDisk=500GB Guess=Read IOp(5/15=2)
 ----------------------------------------------------------------------

 ---
 CuO
 ---
 Symbolic Z-matrix:
 Charge =  0 Multiplicity = 2

                         Standard orientation:
 ---------------------------------------------------------------------
 Center     Atomic      Atomic             Coordinates (Angstroms)
 Number     Number       Type             X           Y           Z
 ---------------------------------------------------------------------
      1         29           0        0.000000    0.000000    0.345946
      2          8           0        0.000000    0.000000   -1.254054
 ---------------------------------------------------------------------

 SCF Done:  E(ROHF) =  -211.935985994     A.U. after   18 cycles
 E2 =    -0.1354891359D+01 EUMP2 =    -0.21329087735297D+03
 CCSD(T)
 CCSD(T)= -0.21322097536D+03

 Unable to determine electronic state:  an orbital has unidentified symmetry.
 Alpha  occ. eigenvalues --   -5.27655  -3.48382  -3.47551  -3.47123  -1.26598
 Alpha  occ. eigenvalues --   -0.60987  -0.57509  -0.56530  -0.52966  -0.52964
 Alpha  occ. eigenvalues --   -0.47793  -0.42125  -0.39257
 Alpha virt. eigenvalues --   -0.00855   0.02613   0.02746   0.03587   0.04573
 Alpha virt. eigenvalues --    0.09082   0.09383   0.11895   0.13526   0.13536
 Alpha virt. eigenvalues --    0.14365   0.14404   0.14850   0.19099   0.21536

 Mulliken charges and spin densities:
               1          2
     1  Cu   0.728483   0.032768
     2  O   -0.728483   0.967232
 Sum of Mulliken charges =  -0.00000   1.00000

 Dipole moment (field-independent basis, Debye):
    X=              0.0000    Y=              0.0000    Z=              5.2454  Tot=              5.2454
 Quadrupole moment (field-independent basis, Debye-Ang):
   XX=            -15.8265   YY=            -17.3428   ZZ=            -19.4440
   XY=              0.0000   XZ=              0.0000   YZ=              0.0000

 \\#P ROCCSD(T)=(MaxCyc=150, Full)/Gen SCF=(maxcycle=400) Pseudo=Read I
 908774\MP4SDQ=-213.2494912\CCSD=-213.1702454\CCSD(T)=-213.2209754\RMSD
 Normal termination of Gaussian 16 at Mon Mar 26 21:03:02 2018.
