 Gaussian 16, Revision A.03,
 Gaussian 16:  ES64L-G16RevA.03 25-Dec-2016

 ----------------------------------------------------------------------
 #P ROCCSD(T)=(maxcyc=150, Full, SaveAmplitudes, ReadAmplitudes)/Gen 5d
  7f SCF=(maxcycles=300, VShift=400) Integral(NoXCTest) MaxDisk=500GB P
 op=Full Pseudo=Read Guess=Read IOp(5/15=2)
 ----------------------------------------------------------------------

 ---
 MnO
 ---
 Symbolic Z-matrix:
 Charge =  0 Multiplicity = 6

                         Standard orientation:
 ---------------------------------------------------------------------
 Center     Atomic      Atomic             Coordinates (Angstroms)
 Number     Number       Type             X           Y           Z
 ---------------------------------------------------------------------
      1         25           0        0.000000    0.000000    0.460606
      2          8           0        0.000000    0.000000   -1.439394
 ---------------------------------------------------------------------

 SCF Done:  E(ROHF) =  -119.354562519     A.U. after   61 cycles
 E2 =    -0.8943856423D+00 EUMP2 =    -0.12024894816135D+03
 CCSD(T)
 CCSD(T)= -0.12027541087D+03

 The electronic state is 6-SG.
 Alpha  occ. eigenvalues --   -4.18846  -2.77978  -2.77978  -2.77555  -1.09571
 Alpha  occ. eigenvalues --   -0.66677  -0.66677  -0.66542  -0.66542  -0.64100
 Alpha  occ. eigenvalues --   -0.35136  -0.35136  -0.32235
 Alpha virt. eigenvalues --   -0.05112   0.01345   0.01345   0.01677   0.03795
 Alpha virt. eigenvalues --    0.06306   0.06306   0.08245   0.08325   0.08325
 Alpha virt. eigenvalues --    0.09316   0.09316   0.12710   0.13878   0.22620

 Mulliken charges and spin densities:
               1          2
     1  Mn   1.051221   4.956259
     2  O   -1.051221   0.043741
 Sum of Mulliken charges =  -0.00000   5.00000

 Dipole moment (field-independent basis, Debye):
    X=              0.0000    Y=              0.0000    Z=              9.0843  Tot=              9.0843
 Quadrupole moment (field-independent basis, Debye-Ang):
   XX=            -19.2573   YY=            -19.2572   ZZ=            -25.0836
   XY=              0.0000   XZ=              0.0000   YZ=              0.0000

 \\#P ROCCSD(T)=(maxcyc=150, Full, SaveAmplitudes, ReadAmplitudes)/Gen
 4SDQ=-120.2429858\CCSD=-120.2357058\CCSD(T)=-120.2754109\RMSD=7.668e-0
 Normal termination of Gaussian 16 at Sun Mar 18 19:05:59 2018.
