 Gaussian 16, Revision A.03,
 Gaussian 16:  ES64L-G16RevA.03 25-Dec-2016

 ----------------------------------------------------------------------
 #P ROCCSD(T)=(MaxCyc=150, Full)/Gen SCF=(maxcycle=400) Pseudo=Read Int
 egral(NoXCTest) Pop=Regular MaxDisk=500GB Guess=Read IOp(5/15=2)
 ----------------------------------------------------------------------

 ---
 CoO
 ---
 Symbolic Z-matrix:
 Charge =  0 Multiplicity = 4

                         Standard orientation:
 ---------------------------------------------------------------------
 Center     Atomic      Atomic             Coordinates (Angstroms)
 Number     Number       Type             X           Y           Z
 ---------------------------------------------------------------------
      1         27           0        0.000000    0.000000    0.411429
      2          8           0        0.000000    0.000000   -1.388571
 ---------------------------------------------------------------------

 SCF Done:  E(ROHF) =  -160.654295624     A.U. after   25 cycles
 E2 =    -0.1055720810D+01 EUMP2 =    -0.16171001643390D+03
 CCSD(T)
 CCSD(T)= -0.16173369460D+03

 Unable to determine electronic state:  partially filled degenerate orbitals.
 Alpha  occ. eigenvalues --   -4.89786  -3.25309  -3.25309  -3.25273  -1.15047
 Alpha  occ. eigenvalues --   -0.77341  -0.77341  -0.76988  -0.71932  -0.69894
 Alpha  occ. eigenvalues --   -0.39005  -0.39005  -0.34811
 Alpha virt. eigenvalues --   -0.04985   0.01965   0.01965   0.02173   0.04144
 Alpha virt. eigenvalues --    0.07493   0.07493   0.09914   0.10655   0.10683
 Alpha virt. eigenvalues --    0.11540   0.11540   0.14515   0.15329   0.25778

 Mulliken charges and spin densities:
               1          2
     1  Co   0.962991   2.959215
     2  O   -0.962991   0.040785
 Sum of Mulliken charges =  -0.00000   3.00000

 Dipole moment (field-independent basis, Debye):
    X=              0.0000    Y=              0.0000    Z=              7.7566  Tot=              7.7566
 Quadrupole moment (field-independent basis, Debye-Ang):
   XX=            -19.1196   YY=            -19.1196   ZZ=            -22.7331
   XY=              0.0000   XZ=              0.0000   YZ=              0.0000

 \\#P ROCCSD(T)=(MaxCyc=150, Full)/Gen SCF=(maxcycle=400) Pseudo=Read I
 .7100164\MP4SDQ=-161.6861379\CCSD=-161.6791166\CCSD(T)=-161.7336946\RM
 Normal termination of Gaussian 16 at Sat Mar 31 17:59:11 2018.
