 Gaussian 16, Revision A.03,
 Gaussian 16:  ES64L-G16RevA.03 25-Dec-2016

 ----------------------------------------------------------------------
 #P ROCCSD(T)=(MaxCyc=150, Full)/Gen SCF=(maxcycle=400) Pseudo=Read Int
 egral(NoXCTest) Pop=Regular MaxDisk=500GB Guess=Read IOp(5/15=2)
 ----------------------------------------------------------------------

 ---
 CoO
 ---
 Symbolic Z-matrix:
 Charge =  0 Multiplicity = 4

                         Standard orientation:
 ---------------------------------------------------------------------
 Center     Atomic      Atomic             Coordinates (Angstroms)
 Number     Number       Type             X           Y           Z
 ---------------------------------------------------------------------
      1         27           0        0.000000    0.000000    0.411429
      2          8           0        0.000000    0.000000   -1.388571
 ---------------------------------------------------------------------

 SCF Done:  E(ROHF) =  -160.657869805     A.U. after   22 cycles
 E2 =    -0.1107010890D+01 EUMP2 =    -0.16176488069511D+03
 CCSD(T)
 CCSD(T)= -0.16178603848D+03

 Unable to determine electronic state:  partially filled degenerate orbitals.
 Alpha  occ. eigenvalues --   -4.89770  -3.25284  -3.25284  -3.25246  -1.14999
 Alpha  occ. eigenvalues --   -0.77330  -0.77330  -0.76977  -0.71923  -0.69879
 Alpha  occ. eigenvalues --   -0.39027  -0.39027  -0.34790
 Alpha virt. eigenvalues --   -0.04973   0.01690   0.01690   0.01938   0.03735
 Alpha virt. eigenvalues --    0.06593   0.06593   0.07043   0.07052   0.07113
 Alpha virt. eigenvalues --    0.08046   0.08046   0.12272   0.14354   0.20895

 Mulliken charges and spin densities:
               1          2
     1  Co   0.942951   2.959034
     2  O   -0.942951   0.040966
 Sum of Mulliken charges =  -0.00000   3.00000

 Dipole moment (field-independent basis, Debye):
    X=              0.0000    Y=              0.0000    Z=              7.7414  Tot=              7.7414
 Quadrupole moment (field-independent basis, Debye-Ang):
   XX=            -19.1149   YY=            -19.1149   ZZ=            -22.7146
   XY=              0.0000   XZ=              0.0000   YZ=              0.0000

 \\#P ROCCSD(T)=(MaxCyc=150, Full)/Gen SCF=(maxcycle=400) Pseudo=Read I
 .7648807\MP4SDQ=-161.7353662\CCSD=-161.7292199\CCSD(T)=-161.7860385\RM
 Normal termination of Gaussian 16 at Sat Mar 31 20:17:42 2018.
