 Gaussian 16, Revision A.03,
 Gaussian 16:  ES64L-G16RevA.03 25-Dec-2016

 ----------------------------------------------------------------------
 #P ROCCSD(T)=(maxcyc=150, Full, SaveAmplitudes, ReadAmplitudes)/Gen 5d
  7f SCF=(maxcycles=300) Integral(NoXCTest) MaxDisk=500GB Pop=Regular P
 seudo=Read Guess=Read IOp(5/15=2)
 ----------------------------------------------------------------------

 ---
 MnH
 ---
 Symbolic Z-matrix:
 Charge =  0 Multiplicity = 7

                         Standard orientation:
 ---------------------------------------------------------------------
 Center     Atomic      Atomic             Coordinates (Angstroms)
 Number     Number       Type             X           Y           Z
 ---------------------------------------------------------------------
      1         25           0        0.000000    0.000000    0.073077
      2          1           0        0.000000    0.000000   -1.826923
 ---------------------------------------------------------------------

 SCF Done:  E(ROHF) =  -104.250656428     A.U. after   26 cycles
 E2 =    -0.5815153512D+00 EUMP2 =    -0.10483217177888D+03
 CCSD(T)
 CCSD(T)= -0.10485678190D+03

 The electronic state is 7-SG.
 Alpha  occ. eigenvalues --   -4.10820  -2.77024  -2.77024  -2.76855  -0.64972
 Alpha  occ. eigenvalues --   -0.64972  -0.64319  -0.64265  -0.64265  -0.39407
 Alpha  occ. eigenvalues --   -0.26901
 Alpha virt. eigenvalues --    0.01058   0.01058   0.02331   0.03120   0.05521
 Alpha virt. eigenvalues --    0.05521   0.08096   0.08418   0.08418   0.08903
 Alpha virt. eigenvalues --    0.08903   0.10152   0.13562   0.18689   0.22282

 Mulliken charges and spin densities:
               1          2
     1  Mn   0.427603   5.960024
     2  H   -0.427603   0.039976
 Sum of Mulliken charges =  -0.00000   6.00000

 Dipole moment (field-independent basis, Debye):
    X=              0.0000    Y=              0.0000    Z=              2.0009  Tot=              2.0009
 Quadrupole moment (field-independent basis, Debye-Ang):
   XX=            -16.2519   YY=            -16.2519   ZZ=            -27.2328
   XY=              0.0000   XZ=              0.0000   YZ=              0.0000

 \\#P ROCCSD(T)=(maxcyc=150, Full, SaveAmplitudes, ReadAmplitudes)/Gen
 .8397903\CCSD=-104.8408161\CCSD(T)=-104.8567819\RMSD=8.998e-09\PG=C*V
 Normal termination of Gaussian 16 at Mon Feb 26 14:57:33 2018.
