 Gaussian 16, Revision A.03,
 Gaussian 16:  ES64L-G16RevA.03 25-Dec-2016

 ----------------------------------------------------------------------
 #P ROCCSD(T)=(MaxCyc=150, Full)/Gen SCF=(maxcycle=400) Pseudo=Read Int
 egral(NoXCTest) Pop=Regular MaxDisk=500GB Guess=Read IOp(5/15=2)
 ----------------------------------------------------------------------

 --
 Ni
 --
 Symbolic Z-matrix:
 Charge =  0 Multiplicity = 3

                         Standard orientation:
 ---------------------------------------------------------------------
 Center     Atomic      Atomic             Coordinates (Angstroms)
 Number     Number       Type             X           Y           Z
 ---------------------------------------------------------------------
      1         28           0        0.000000    0.000000    0.000000
 ---------------------------------------------------------------------

 SCF Done:  E(ROHF) =  -169.254611705     A.U. after   12 cycles
 E2 =    -0.8834580562D+00 EUMP2 =    -0.17013806976165D+03
 CCSD(T)
 CCSD(T)= -0.17013611413D+03

 Unable to determine electronic state:  an orbital has unidentified symmetry.
 Alpha  occ. eigenvalues --   -5.01654  -3.46690  -3.38104  -3.38104  -0.76915
 Alpha  occ. eigenvalues --   -0.76915  -0.72899  -0.68042  -0.68042  -0.28764
 Alpha virt. eigenvalues --    0.02084   0.02228   0.02228   0.02992   0.06677
 Alpha virt. eigenvalues --    0.07053   0.07053   0.08330   0.08330   0.08331
 Alpha virt. eigenvalues --    0.08364   0.08364   0.16068   0.22492   0.23098

 Mulliken charges and spin densities:
               1          2
     1  Ni  -0.000000   2.000000
 Sum of Mulliken charges =  -0.00000   2.00000

 Dipole moment (field-independent basis, Debye):
    X=              0.0000    Y=              0.0000    Z=              0.0000  Tot=              0.0000
 Quadrupole moment (field-independent basis, Debye-Ang):
   XX=            -16.5028   YY=            -16.2570   ZZ=            -16.5028
   XY=             -0.0000   XZ=             -0.0000   YZ=              0.0000

 1\1\GINC-C470-114\SP\ROCCSD(T)-Full\Gen\Ni1(3)\GWANG18\27-Mar-2018\0\\
 #P ROCCSD(T)=(MaxCyc=150, Full)/Gen SCF=(maxcycle=400) Pseudo=Read Int
 egral(NoXCTest) Pop=Regular MaxDisk=500GB Guess=Read IOp(5/15=2)\\Ni\\
 0,3\Ni,0,0.,0.,0.\\Version=ES64L-G16RevA.03\HF=-169.2546117\MP2=-170.1
 380698\MP3=-170.0883636\PUHF=-169.2546117\PMP2-0=-170.1380698\MP4SDQ=-
 170.11642\CCSD=-170.1083887\CCSD(T)=-170.1361141\RMSD=5.924e-09\PG=OH
 [O(Ni1)]\\@

 Normal termination of Gaussian 16 at Tue Mar 27 23:45:36 2018.
