 Gaussian 16, Revision A.03,
 Gaussian 16:  ES64L-G16RevA.03 25-Dec-2016

 ----------------------------------------------------------------------
 #P ROHF/Gen SCF=(maxcycle=400, vshift=200) Pseudo=Read Integral(NoXCTe
 st) Pop=Regular MaxDisk=500GB Guess=(Read, Permute) IOp(5/15=2)
 ----------------------------------------------------------------------

 --
 Ni
 --
 Symbolic Z-matrix:
 Charge =  0 Multiplicity = 3

                         Standard orientation:
 ---------------------------------------------------------------------
 Center     Atomic      Atomic             Coordinates (Angstroms)
 Number     Number       Type             X           Y           Z
 ---------------------------------------------------------------------
      1         28           0        0.000000    0.000000    0.000000
 ---------------------------------------------------------------------

 SCF Done:  E(ROHF) =  -169.252767681     A.U. after   20 cycles

 Unable to determine electronic state:  an orbital has unidentified symmetry.
 Alpha  occ. eigenvalues --   -4.87365  -3.24429  -3.24429  -3.22711  -0.69056
 Alpha  occ. eigenvalues --   -0.62571  -0.62571  -0.27831  -0.15138  -0.15138
 Alpha virt. eigenvalues --    0.02275   0.02413   0.02413   0.03123   0.07750
 Alpha virt. eigenvalues --    0.08101   0.08101   0.12682   0.12710   0.12710
 Alpha virt. eigenvalues --    0.12763   0.12763   0.16644   0.28467   0.29076

 Mulliken charges and spin densities:
               1          2
     1  Ni  -0.000000   2.000000
 Sum of Mulliken charges =  -0.00000   2.00000

 Dipole moment (field-independent basis, Debye):
    X=              0.0000    Y=              0.0000    Z=              0.0000  Tot=              0.0000
 Quadrupole moment (field-independent basis, Debye-Ang):
   XX=            -16.5067   YY=            -16.2575   ZZ=            -16.5067
   XY=             -0.0000   XZ=              0.0000   YZ=              0.0000

 Normal termination of Gaussian 16 at Tue Mar 27 13:04:17 2018.
