 Gaussian 16, Revision A.03,
 Gaussian 16:  ES64L-G16RevA.03 25-Dec-2016

 ----------------------------------------------------------------------
 #P ROCCSD(T)=(MaxCyc=150, Full)/Gen SCF=(maxcycle=400) Pseudo=Read Int
 egral(NoXCTest) Pop=Regular MaxDisk=500GB Guess=Read IOp(5/15=2)
 ----------------------------------------------------------------------

 --
 Ni
 --
 Symbolic Z-matrix:
 Charge =  0 Multiplicity = 3

                         Standard orientation:
 ---------------------------------------------------------------------
 Center     Atomic      Atomic             Coordinates (Angstroms)
 Number     Number       Type             X           Y           Z
 ---------------------------------------------------------------------
      1         28           0        0.000000    0.000000    0.000000
 ---------------------------------------------------------------------

 SCF Done:  E(ROHF) =  -169.252767681     A.U. after    1 cycles
 E2 =    -0.8403704476D+00 EUMP2 =    -0.17009313812878D+03
 CCSD(T)
 CCSD(T)= -0.17009238736D+03

 Unable to determine electronic state:  an orbital has unidentified symmetry.
 Alpha  occ. eigenvalues --   -5.01682  -3.46709  -3.38121  -3.38121  -0.76904
 Alpha  occ. eigenvalues --   -0.76904  -0.72887  -0.68031  -0.68031  -0.28766
 Alpha virt. eigenvalues --    0.02221   0.02387   0.02387   0.03102   0.07590
 Alpha virt. eigenvalues --    0.08010   0.08010   0.12666   0.12666   0.12676
 Alpha virt. eigenvalues --    0.12754   0.12754   0.16528   0.28099   0.28857

 Mulliken charges and spin densities:
               1          2
     1  Ni  -0.000000   2.000000
 Sum of Mulliken charges =  -0.00000   2.00000

 Dipole moment (field-independent basis, Debye):
    X=              0.0000    Y=              0.0000    Z=              0.0000  Tot=              0.0000
 Quadrupole moment (field-independent basis, Debye-Ang):
   XX=            -16.5067   YY=            -16.2575   ZZ=            -16.5067
   XY=             -0.0000   XZ=              0.0000   YZ=              0.0000

 1\1\GINC-C470-114\SP\ROCCSD(T)-Full\Gen\Ni1(3)\GWANG18\27-Mar-2018\0\\
 #P ROCCSD(T)=(MaxCyc=150, Full)/Gen SCF=(maxcycle=400) Pseudo=Read Int
 egral(NoXCTest) Pop=Regular MaxDisk=500GB Guess=Read IOp(5/15=2)\\Ni\\
 0,3\Ni,0,0.,0.,0.\\Version=ES64L-G16RevA.03\HF=-169.2527677\MP2=-170.0
 931381\MP3=-170.0450273\PUHF=-169.2527677\PMP2-0=-170.0931381\MP4SDQ=-
 170.074309\CCSD=-170.0660984\CCSD(T)=-170.0923874\RMSD=9.970e-09\PG=OH
  [O(Ni1)]\\@

 Normal termination of Gaussian 16 at Tue Mar 27 23:21:14 2018.
