 Gaussian 16, Revision A.03,
 Gaussian 16:  ES64L-G16RevA.03 25-Dec-2016

 ----------------------------------------------------------------------
 #P ROHF/Gen SCF=(maxcycle=400, vshift=200) Pseudo=Read Integral(NoXCTe
 st) Pop=Regular MaxDisk=500GB IOp(5/15=2)
 ----------------------------------------------------------------------

 --
 Ni
 --
 Symbolic Z-matrix:
 Charge =  0 Multiplicity = 3

                         Standard orientation:
 ---------------------------------------------------------------------
 Center     Atomic      Atomic             Coordinates (Angstroms)
 Number     Number       Type             X           Y           Z
 ---------------------------------------------------------------------
      1         28           0        0.000000    0.000000    0.000000
 ---------------------------------------------------------------------

 SCF Done:  E(ROHF) =  -169.206233259     A.U. after  146 cycles

 Unable to determine electronic state:  an orbital has unidentified symmetry.
 Alpha  occ. eigenvalues --   -4.66049  -3.05107  -3.05107  -3.03298  -0.45179
 Alpha  occ. eigenvalues --   -0.45179  -0.40497  -0.40497  -0.06762  -0.02634
 Alpha virt. eigenvalues --    0.02645   0.02748   0.02748   0.03550   0.09276
 Alpha virt. eigenvalues --    0.09621   0.09621   0.12843   0.12843   0.12846
 Alpha virt. eigenvalues --    0.12944   0.12944   0.18545   0.31607   0.32286

 Mulliken charges and spin densities:
               1          2
     1  Ni  -0.000000   2.000000
 Sum of Mulliken charges =  -0.00000   2.00000

 Dipole moment (field-independent basis, Debye):
    X=              0.0000    Y=              0.0000    Z=              0.0000  Tot=              0.0000
 Quadrupole moment (field-independent basis, Debye-Ang):
   XX=            -14.1284   YY=            -14.5803   ZZ=            -14.5803
   XY=              0.0000   XZ=             -0.0000   YZ=              0.0000

 Normal termination of Gaussian 16 at Mon Mar 26 22:57:00 2018.
