 Gaussian 16, Revision A.03,
 Gaussian 16:  ES64L-G16RevA.03 25-Dec-2016

 ----------------------------------------------------------------------
 #P ROCCSD(T)=(maxcyc=150, Full)/Gen 5d 7f SCF=(maxcycles=300) Integral
 (NoXCTest) MaxDisk=500GB Pop=Regular Pseudo=Read IOp(5/15=2) Guess=Rea
 d
 ----------------------------------------------------------------------

 ---
 ScH
 ---
 Symbolic Z-matrix:
 Charge =  0 Multiplicity = 1

                         Standard orientation:
 ---------------------------------------------------------------------
 Center     Atomic      Atomic             Coordinates (Angstroms)
 Number     Number       Type             X           Y           Z
 ---------------------------------------------------------------------
      1         21           0        0.000000    0.000000    0.072727
      2          1           0        0.000000    0.000000   -1.527273
 ---------------------------------------------------------------------

 SCF Done:  E(ROHF) =  -46.5916841481     A.U. after    9 cycles
 E2 =    -0.4317736421D+00 EUMP2 =    -0.47023457790194D+02
 CCSD(T)
 CCSD(T)= -0.47062675235D+02

 The electronic state is 1-SG.
 Alpha  occ. eigenvalues --   -2.67498  -1.64987  -1.64482  -1.64482  -0.42958
 Alpha  occ. eigenvalues --   -0.22565
 Alpha virt. eigenvalues --    0.01199   0.01199   0.01497   0.01659   0.02612
 Alpha virt. eigenvalues --    0.02612   0.02640   0.02640   0.02668   0.04077
 Alpha virt. eigenvalues --    0.04182   0.04182   0.06952   0.07155   0.07155

 Mulliken charges and spin densities:
               1          2
     1  Sc   0.386680   0.000000
     2  H   -0.386680   0.000000
 Sum of Mulliken charges =   0.00000   0.00000

 Dipole moment (field-independent basis, Debye):
    X=              0.0000    Y=              0.0000    Z=              0.9918  Tot=              0.9918
 Quadrupole moment (field-independent basis, Debye-Ang):
   XX=            -23.2656   YY=            -23.2656   ZZ=            -25.2763
   XY=              0.0000   XZ=              0.0000   YZ=              0.0000

 P ROCCSD(T)=(maxcyc=150, Full)/Gen 5d 7f SCF=(maxcycles=300) Integral(
 PMP2-0=-47.0234578\MP4SDQ=-47.0436079\CCSD=-47.0433554\CCSD(T)=-47.062
 Normal termination of Gaussian 16 at Wed Feb 14 02:56:15 2018.
