 Gaussian 16, Revision A.03,
 Gaussian 16:  ES64L-G16RevA.03 25-Dec-2016

 ----------------------------------------------------------------------
 #P ROCCSD(T)=(maxcyc=150, Full)/Gen 5d 7f SCF=(maxcycles=300) Integral
 (NoXCTest) MaxDisk=500GB Pop=Regular Pseudo=Read
 ----------------------------------------------------------------------

 ---
 CrH
 ---
 Symbolic Z-matrix:
 Charge =  0 Multiplicity = 6

                         Standard orientation:
 ---------------------------------------------------------------------
 Center     Atomic      Atomic             Coordinates (Angstroms)
 Number     Number       Type             X           Y           Z
 ---------------------------------------------------------------------
      1         24           0        0.000000    0.000000    0.088000
      2          1           0        0.000000    0.000000   -2.112000
 ---------------------------------------------------------------------

 SCF Done:  E(ROHF) =  -86.6706574593     A.U. after   35 cycles
 E2 =    -0.5148366706D+00 EUMP2 =    -0.87185494129997D+02
 CCSD(T)
 CCSD(T)= -0.87205322214D+02

 The electronic state is 6-SG.
 Alpha  occ. eigenvalues --   -3.77109  -2.52587  -2.52587  -2.47534  -0.59635
 Alpha  occ. eigenvalues --   -0.59635  -0.55988  -0.55988  -0.36206  -0.27222
 Alpha virt. eigenvalues --    0.00790   0.00790   0.02050   0.02707   0.04992
 Alpha virt. eigenvalues --    0.05041   0.05041   0.07400   0.07400   0.07920
 Alpha virt. eigenvalues --    0.07920   0.08965   0.10596   0.16049   0.19713

 Mulliken charges and spin densities:
               1          2
     1  Cr   0.381278   4.972522
     2  H   -0.381278   0.027478
 Sum of Mulliken charges =  -0.00000   5.00000

 Dipole moment (field-independent basis, Debye):
    X=              0.0000    Y=              0.0000    Z=              3.6205  Tot=              3.6205
 Quadrupole moment (field-independent basis, Debye-Ang):
   XX=            -17.4448   YY=            -17.4448   ZZ=            -28.8524
   XY=              0.0000   XZ=              0.0000   YZ=              0.0000

 \\#P ROCCSD(T)=(maxcyc=150, Full)/Gen 5d 7f SCF=(maxcycles=300) Integr
 P4SDQ=-87.2033645\CCSD=-87.1928814\CCSD(T)=-87.2053222\RMSD=6.208e-09\
 Normal termination of Gaussian 16 at Tue Feb 13 18:37:50 2018.
