 Gaussian 16, Revision A.03,
 Gaussian 16:  ES64L-G16RevA.03 25-Dec-2016

 ----------------------------------------------------------------------
 #P ROCCSD(T)=(MaxCyc=150, Full)/Gen SCF=(maxcycle=400, vshift=200) Pse
 udo=Read Integral(NoXCTest) Pop=Regular MaxDisk=500GB Guess=Read IOp(5
 /15=2)
 ----------------------------------------------------------------------

 ---
 ZnH
 ---
 Symbolic Z-matrix:
 Charge =  0 Multiplicity = 2

                         Standard orientation:
 ---------------------------------------------------------------------
 Center     Atomic      Atomic             Coordinates (Angstroms)
 Number     Number       Type             X           Y           Z
 ---------------------------------------------------------------------
      1         30           0        0.000000    0.000000    0.038710
      2          1           0        0.000000    0.000000   -1.161290
 ---------------------------------------------------------------------

 SCF Done:  E(ROHF) =  -226.431791685     A.U. after   25 cycles
 E2 =    -0.1130049023D+01 EUMP2 =    -0.22756184070799D+03
 CCSD(T)
 CCSD(T)= -0.22750255117D+03

 The electronic state is 2-SG.
 Alpha  occ. eigenvalues --   -5.91193  -3.98743  -3.97963  -3.97963  -0.83474
 Alpha  occ. eigenvalues --   -0.80816  -0.80816  -0.80750  -0.80750  -0.49038
 Alpha  occ. eigenvalues --   -0.26578
 Alpha virt. eigenvalues --    0.01976   0.01976   0.02105   0.03397   0.06413
 Alpha virt. eigenvalues --    0.06413   0.06963   0.11883   0.13997   0.15305
 Alpha virt. eigenvalues --    0.15305   0.15542   0.15542   0.19192   0.20469

 Mulliken charges and spin densities:
               1          2
     1  Zn   0.320020   0.948417
     2  H   -0.320020   0.051583
 Sum of Mulliken charges =  -0.00000   1.00000

 Dipole moment (field-independent basis, Debye):
    X=              0.0000    Y=              0.0000    Z=             -0.2646  Tot=              0.2646
 Quadrupole moment (field-independent basis, Debye-Ang):
   XX=            -14.3896   YY=            -14.3896   ZZ=            -20.4784
   XY=              0.0000   XZ=              0.0000   YZ=              0.0000

 \\#P ROCCSD(T)=(MaxCyc=150, Full)/Gen SCF=(maxcycle=400, vshift=200) P
 Normal termination of Gaussian 16 at Mon Apr 30 08:37:05 2018.
