 Gaussian 16, Revision A.03,
 Gaussian 16:  ES64L-G16RevA.03 25-Dec-2016

 ----------------------------------------------------------------------
 #P ROCCSD(T)=(MaxCyc=150, Full)/Gen SCF=(maxcycle=400, vshift=200) Pse
 udo=Read Integral(NoXCTest) Pop=Regular MaxDisk=500GB Guess=Read IOp(5
 /15=2)
 ----------------------------------------------------------------------

 ---
 ZnH
 ---
 Symbolic Z-matrix:
 Charge =  0 Multiplicity = 2

                         Standard orientation:
 ---------------------------------------------------------------------
 Center     Atomic      Atomic             Coordinates (Angstroms)
 Number     Number       Type             X           Y           Z
 ---------------------------------------------------------------------
      1         30           0        0.000000    0.000000    0.038710
      2          1           0        0.000000    0.000000   -1.161290
 ---------------------------------------------------------------------

 SCF Done:  E(ROHF) =  -226.430404422     A.U. after   31 cycles
 E2 =    -0.1048985174D+01 EUMP2 =    -0.22747938959611D+03
 CCSD(T)
 CCSD(T)= -0.22742299549D+03

 The electronic state is 2-SG.
 Alpha  occ. eigenvalues --   -5.91202  -3.98757  -3.97980  -3.97980  -0.83479
 Alpha  occ. eigenvalues --   -0.80820  -0.80820  -0.80758  -0.80758  -0.49040
 Alpha  occ. eigenvalues --   -0.26576
 Alpha virt. eigenvalues --    0.02169   0.02169   0.02577   0.04155   0.07791
 Alpha virt. eigenvalues --    0.07791   0.08956   0.16083   0.19227   0.24427
 Alpha virt. eigenvalues --    0.24427   0.25153   0.25153   0.26902   0.28476

 Mulliken charges and spin densities:
               1          2
     1  Zn   0.296515   0.957271
     2  H   -0.296515   0.042729
 Sum of Mulliken charges =  -0.00000   1.00000

 Dipole moment (field-independent basis, Debye):
    X=              0.0000    Y=              0.0000    Z=             -0.2627  Tot=              0.2627
 Quadrupole moment (field-independent basis, Debye-Ang):
   XX=            -14.3974   YY=            -14.3974   ZZ=            -20.4708
   XY=              0.0000   XZ=              0.0000   YZ=              0.0000

 \\#P ROCCSD(T)=(MaxCyc=150, Full)/Gen SCF=(maxcycle=400, vshift=200) P
 CCSD(T)=-227.4229955\RMSD=5.909e-09\PG=C*V [C*(H1Zn1)]\\@
 Normal termination of Gaussian 16 at Sat Apr 21 10:26:44 2018.
