 Gaussian 16, Revision A.03,
 Gaussian 16:  ES64L-G16RevA.03 25-Dec-2016

 ----------------------------------------------------------------------
 #P ROCCSD(T)=(MaxCyc=150, Full)/Gen SCF=(maxcycle=400, vshift=200) Pse
 udo=Read Integral(NoXCTest) Pop=Regular MaxDisk=500GB Guess=Read IOp(5
 /15=2)
 ----------------------------------------------------------------------

 ---
 ZnH
 ---
 Symbolic Z-matrix:
 Charge =  0 Multiplicity = 2

                         Standard orientation:
 ---------------------------------------------------------------------
 Center     Atomic      Atomic             Coordinates (Angstroms)
 Number     Number       Type             X           Y           Z
 ---------------------------------------------------------------------
      1         30           0        0.000000    0.000000    0.038710
      2          1           0        0.000000    0.000000   -1.161290
 ---------------------------------------------------------------------

 SCF Done:  E(ROHF) =  -226.431658922     A.U. after   21 cycles
 E2 =    -0.1103588958D+01 EUMP2 =    -0.22753524787929D+03
 CCSD(T)
 CCSD(T)= -0.22747794807D+03

 The electronic state is 2-SG.
 Alpha  occ. eigenvalues --   -5.91194  -3.98744  -3.97964  -3.97964  -0.83476
 Alpha  occ. eigenvalues --   -0.80816  -0.80816  -0.80752  -0.80752  -0.49037
 Alpha  occ. eigenvalues --   -0.26577
 Alpha virt. eigenvalues --    0.02041   0.02041   0.02405   0.03817   0.06839
 Alpha virt. eigenvalues --    0.06839   0.08031   0.14547   0.17770   0.17807
 Alpha virt. eigenvalues --    0.17807   0.18230   0.18230   0.21918   0.23005

 Mulliken charges and spin densities:
               1          2
     1  Zn   0.250898   0.942247
     2  H   -0.250898   0.057753
 Sum of Mulliken charges =  -0.00000   1.00000

 Dipole moment (field-independent basis, Debye):
    X=              0.0000    Y=              0.0000    Z=             -0.2641  Tot=              0.2641
 Quadrupole moment (field-independent basis, Debye-Ang):
   XX=            -14.3918   YY=            -14.3918   ZZ=            -20.4776
   XY=              0.0000   XZ=              0.0000   YZ=              0.0000

 \\#P ROCCSD(T)=(MaxCyc=150, Full)/Gen SCF=(maxcycle=400, vshift=200) P
 CCSD(T)=-227.4779481\RMSD=5.036e-09\PG=C*V [C*(H1Zn1)]\\@
 Normal termination of Gaussian 16 at Sat Apr 21 11:23:04 2018.
