 Gaussian 16, Revision A.03,
 Gaussian 16:  ES64L-G16RevA.03 25-Dec-2016

 ----------------------------------------------------------------------
 #P ROCCSD(T)=(maxcyc=150, Full, SaveAmplitudes, ReadAmplitudes)/Gen 5d
  7f SCF=(maxcycles=300) Integral(NoXCTest) MaxDisk=500GB Pop=Regular P
 seudo=Read Guess=Read
 ----------------------------------------------------------------------

 ---
 TiO
 ---
 Symbolic Z-matrix:
 Charge =  0 Multiplicity = 3

                         Standard orientation:
 ---------------------------------------------------------------------
 Center     Atomic      Atomic             Coordinates (Angstroms)
 Number     Number       Type             X           Y           Z
 ---------------------------------------------------------------------
      1         22           0        0.000000    0.000000    0.400000
      2          8           0        0.000000    0.000000   -1.100000
 ---------------------------------------------------------------------

 SCF Done:  E(ROHF) =  -73.2651885456     A.U. after   21 cycles
 E2 =    -0.7733289760D+00 EUMP2 =    -0.74038517521550D+02
 CCSD(T)
 CCSD(T)= -0.74062712525D+02

 Unable to determine electronic state:  an orbital has unidentified symmetry.
 Alpha  occ. eigenvalues --   -2.97368  -1.90408  -1.88249  -1.88249  -1.16216
 Alpha  occ. eigenvalues --   -0.49077  -0.49077  -0.48608  -0.42147  -0.24790
 Alpha virt. eigenvalues --    0.00698   0.00698   0.01750   0.02357   0.03740
 Alpha virt. eigenvalues --    0.03802   0.03859   0.03859   0.04078   0.04189
 Alpha virt. eigenvalues --    0.04189   0.06073   0.09760   0.10464   0.11520

 Mulliken charges and spin densities:
               1          2
     1  Ti   1.022000   1.971104
     2  O   -1.022000   0.028896
 Sum of Mulliken charges =   0.00000   2.00000

 Dipole moment (field-independent basis, Debye):
    X=              0.0000    Y=              0.0000    Z=              3.0651  Tot=              3.0651
 Quadrupole moment (field-independent basis, Debye-Ang):
   XX=            -21.6037   YY=            -21.6037   ZZ=            -28.4370
   XY=              0.0000   XZ=              0.0000   YZ=              0.0000

 \\#P ROCCSD(T)=(maxcyc=150, Full, SaveAmplitudes, ReadAmplitudes)/Gen
 -0=-74.0385175\CCSD=-74.0201814\CCSD(T)=-74.0627125\RMSD=4.690e-09\PG=
 Normal termination of Gaussian 16 at Sat Mar 10 01:28:36 2018.
