 Gaussian 16, Revision A.03,
 Gaussian 16:  ES64L-G16RevA.03 25-Dec-2016

 ----------------------------------------------------------------------
 #P ROCCSD(T)=(maxcyc=150, Full)/Gen 5d 7f SCF=(maxcycles=300) Integral
 (NoXCTest, DKHSO) MaxDisk=500GB Pop=Regular IOp(5/15=2) Guess=Read
 ----------------------------------------------------------------------

 ---
 ScH
 ---
 Symbolic Z-matrix:
 Charge =  0 Multiplicity = 1

                         Standard orientation:
 ---------------------------------------------------------------------
 Center     Atomic      Atomic             Coordinates (Angstroms)
 Number     Number       Type             X           Y           Z
 ---------------------------------------------------------------------
      1         21           0        0.000000    0.000000    0.050000
      2          1           0        0.000000    0.000000   -1.050000
 ---------------------------------------------------------------------

 SCF Done:  E(ROHF) =  -763.647864353     A.U. after   13 cycles
 E2 =    -0.8087193103D+00 EUMP2 =    -0.76445658366369D+03
 CCSD(T)
 CCSD(T)= -0.76448473652D+03

 The electronic state is 1-SG.
 Alpha  occ. eigenvalues -- -166.81150 -19.24883 -15.67353 -15.67353 -15.66704
 Alpha  occ. eigenvalues --   -2.60156  -1.63975  -1.57113  -1.57113  -0.47323
 Alpha  occ. eigenvalues --   -0.21334
 Alpha virt. eigenvalues --    0.01288   0.01327   0.01327   0.01675   0.02604
 Alpha virt. eigenvalues --    0.02604   0.02620   0.02644   0.02644   0.04031
 Alpha virt. eigenvalues --    0.04425   0.04425   0.07069   0.07425   0.07425

 Mulliken charges and spin densities:
               1          2
     1  Sc   0.209470   0.000000
     2  H   -0.209470   0.000000
 Sum of Mulliken charges =  -0.00000   0.00000

 Dipole moment (field-independent basis, Debye):
    X=              0.0000    Y=              0.0000    Z=              0.9172  Tot=              0.9172
 Quadrupole moment (field-independent basis, Debye-Ang):
   XX=            -24.0823   YY=            -24.0823   ZZ=            -22.6244
   XY=             -0.0000   XZ=              0.0000   YZ=              0.0000

 P ROCCSD(T)=(maxcyc=150, Full)/Gen 5d 7f SCF=(maxcycles=300) Integral(
 MP2-0=-764.4565837\MP4SDQ=-764.4656999\CCSD=-764.4654303\CCSD(T)=-764.
 Normal termination of Gaussian 16 at Wed Feb 14 16:01:36 2018.
