 Gaussian 16, Revision A.03,
 Gaussian 16:  ES64L-G16RevA.03 25-Dec-2016

 ----------------------------------------------------------------------
 #P ROCCSD(T)=(maxcyc=150, Full, SaveAmplitudes, ReadAmplitudes)/Gen 5d
  7f SCF=(maxcycles=300, VShift=400) Integral(NoXCTest) MaxDisk=500GB P
 op=Full Pseudo=Read Guess=Read IOp(5/15=2)
 ----------------------------------------------------------------------

 ---
 MnO
 ---
 Symbolic Z-matrix:
 Charge =  0 Multiplicity = 6

                         Standard orientation:
 ---------------------------------------------------------------------
 Center     Atomic      Atomic             Coordinates (Angstroms)
 Number     Number       Type             X           Y           Z
 ---------------------------------------------------------------------
      1         25           0        0.000000    0.000000    0.339394
      2          8           0        0.000000    0.000000   -1.060606
 ---------------------------------------------------------------------

 SCF Done:  E(ROHF) =  -118.827442114     A.U. after   56 cycles
 E2 =    -0.9315635191D+00 EUMP2 =    -0.11975900563340D+03
 CCSD(T)
 CCSD(T)= -0.11976970853D+03

 The electronic state is 6-SG.
 Alpha  occ. eigenvalues --   -4.13381  -2.75495  -2.75495  -2.73438  -1.24342
 Alpha  occ. eigenvalues --   -0.70616  -0.70616  -0.63314  -0.63314  -0.55825
 Alpha  occ. eigenvalues --   -0.41095  -0.41095  -0.31714
 Alpha virt. eigenvalues --    0.01201   0.02185   0.02185   0.03338   0.05183
 Alpha virt. eigenvalues --    0.07108   0.07108   0.08702   0.08702   0.09368
 Alpha virt. eigenvalues --    0.09368   0.09500   0.12568   0.15514   0.23710

 Mulliken charges and spin densities:
               1          2
     1  Mn   0.916911   4.796768
     2  O   -0.916911   0.203232
 Sum of Mulliken charges =  -0.00000   5.00000

 Dipole moment (field-independent basis, Debye):
    X=              0.0000    Y=              0.0000    Z=              4.2208  Tot=              4.2208
 Quadrupole moment (field-independent basis, Debye-Ang):
   XX=            -19.6597   YY=            -19.6597   ZZ=            -23.1811
   XY=              0.0000   XZ=              0.0000   YZ=              0.0000

 \\#P ROCCSD(T)=(maxcyc=150, Full, SaveAmplitudes, ReadAmplitudes)/Gen
 4SDQ=-119.7458008\CCSD=-119.7281689\CCSD(T)=-119.7697085\RMSD=7.926e-0
 Normal termination of Gaussian 16 at Thu Apr 19 08:06:13 2018.
