 Gaussian 16, Revision A.03,
 Gaussian 16:  ES64L-G16RevA.03 25-Dec-2016

 ----------------------------------------------------------------------
 #P ROCCSD(T)=(maxcyc=150, Full, SaveAmplitudes, ReadAmplitudes)/Gen 5d
  7f SCF=(maxcycles=300, VShift=400) Integral(NoXCTest) MaxDisk=500GB P
 op=Full Pseudo=Read Guess=Read
 ----------------------------------------------------------------------

 ---
 MnH
 ---
 Symbolic Z-matrix:
 Charge =  0 Multiplicity = 7

                         Standard orientation:
 ---------------------------------------------------------------------
 Center     Atomic      Atomic             Coordinates (Angstroms)
 Number     Number       Type             X           Y           Z
 ---------------------------------------------------------------------
      1         25           0        0.000000    0.000000    0.053846
      2          1           0        0.000000    0.000000   -1.346154
 ---------------------------------------------------------------------

 SCF Done:  E(ROHF) =  -103.762136538     A.U. after   24 cycles
 E2 =    -0.6130952825D+00 EUMP2 =    -0.10437523182072D+03
 CCSD(T)
 CCSD(T)= -0.10439518989D+03

 The electronic state is 7-SG.
 Alpha  occ. eigenvalues --   -4.14216  -2.76324  -2.76101  -2.76101  -0.65465
 Alpha  occ. eigenvalues --   -0.63649  -0.63649  -0.63225  -0.63225  -0.41951
 Alpha  occ. eigenvalues --   -0.24830
 Alpha virt. eigenvalues --    0.01313   0.01313   0.02013   0.03071   0.05164
 Alpha virt. eigenvalues --    0.05164   0.05696   0.05830   0.05830   0.06185
 Alpha virt. eigenvalues --    0.06185   0.08522   0.13922   0.14770   0.17973

 Mulliken charges and spin densities:
               1          2
     1  Mn   0.401400   5.929149
     2  H   -0.401400   0.070851
 Sum of Mulliken charges =  -0.00000   6.00000

 Dipole moment (field-independent basis, Debye):
    X=              0.0000    Y=              0.0000    Z=              0.2885  Tot=              0.2885
 Quadrupole moment (field-independent basis, Debye-Ang):
   XX=            -15.9970   YY=            -15.9970   ZZ=            -25.4691
   XY=              0.0000   XZ=              0.0000   YZ=              0.0000

 \\#P ROCCSD(T)=(maxcyc=150, Full, SaveAmplitudes, ReadAmplitudes)/Gen
 \PUHF=-103.7621365\PMP2-0=-104.3752318\CCSD=-104.3778099\CCSD(T)=-104.
 Normal termination of Gaussian 16 at Sat May  5 07:58:13 2018.
