 Gaussian 16, Revision A.03,
 Gaussian 16:  ES64L-G16RevA.03 25-Dec-2016

 ----------------------------------------------------------------------
 #P ROCCSD(T)=(maxcyc=150, Full, SaveAmplitudes, ReadAmplitudes)/Gen 5d
  7f SCF=(maxcycles=300) Integral(NoXCTest) MaxDisk=500GB Pop=Regular P
 seudo=Read Guess=Read IOp(5/15=2)
 ----------------------------------------------------------------------

 ---
 MnO
 ---
 Symbolic Z-matrix:
 Charge =  0 Multiplicity = 6

                         Standard orientation:
 ---------------------------------------------------------------------
 Center     Atomic      Atomic             Coordinates (Angstroms)
 Number     Number       Type             X           Y           Z
 ---------------------------------------------------------------------
      1         25           0        0.000000    0.000000    0.460606
      2          8           0        0.000000    0.000000   -1.439394
 ---------------------------------------------------------------------

 SCF Done:  E(ROHF) =  -119.130241158     A.U. after   33 cycles
 E2 =    -0.8846080039D+00 EUMP2 =    -0.12001484916167D+03
 CCSD(T)
 CCSD(T)= -0.12004227799D+03

 The electronic state is 6-SG.
 Alpha  occ. eigenvalues --   -4.25575  -2.81187  -2.81187  -2.80705  -1.09415
 Alpha  occ. eigenvalues --   -0.66059  -0.66059  -0.65975  -0.65975  -0.63444
 Alpha  occ. eigenvalues --   -0.34706  -0.34706  -0.32321
 Alpha virt. eigenvalues --   -0.05350   0.01292   0.01292   0.01611   0.03801
 Alpha virt. eigenvalues --    0.06246   0.06246   0.08232   0.08307   0.08307
 Alpha virt. eigenvalues --    0.09305   0.09305   0.12678   0.13921   0.22476

 Mulliken charges and spin densities:
               1          2
     1  Mn   1.057930   4.953739
     2  O   -1.057930   0.046261
 Sum of Mulliken charges =  -0.00000   5.00000

 Dipole moment (field-independent basis, Debye):
    X=              0.0000    Y=              0.0000    Z=              9.3072  Tot=              9.3072
 Quadrupole moment (field-independent basis, Debye-Ang):
   XX=            -19.3582   YY=            -19.3582   ZZ=            -25.2981
   XY=              0.0000   XZ=              0.0000   YZ=              0.0000

 \\#P ROCCSD(T)=(maxcyc=150, Full, SaveAmplitudes, ReadAmplitudes)/Gen
 .0108458\CCSD=-120.0028626\CCSD(T)=-120.042278\RMSD=8.382e-09\PG=C*V [
 Normal termination of Gaussian 16 at Wed Mar 14 07:34:44 2018.
