 Gaussian 16, Revision A.03,
 Gaussian 16:  ES64L-G16RevA.03 25-Dec-2016

 ----------------------------------------------------------------------
 #P ROCCSD(T)=(maxcyc=150, Full)/Gen 5d 7f SCF=(maxcycles=300) Integral
 (NoXCTest) MaxDisk=500GB Pop=Regular Pseudo=Read IOp(5/15=2) Guess=Rea
 d
 ----------------------------------------------------------------------

 ---
 ScH
 ---
 Symbolic Z-matrix:
 Charge =  0 Multiplicity = 1

                         Standard orientation:
 ---------------------------------------------------------------------
 Center     Atomic      Atomic             Coordinates (Angstroms)
 Number     Number       Type             X           Y           Z
 ---------------------------------------------------------------------
      1         21           0        0.000000    0.000000    0.045455
      2          1           0        0.000000    0.000000   -0.954545
 ---------------------------------------------------------------------

 SCF Done:  E(ROHF) =  -46.3222796998     A.U. after   13 cycles
 E2 =    -0.4149166480D+00 EUMP2 =    -0.46737196347825D+02
 CCSD(T)
 CCSD(T)= -0.46775746379D+02

 The electronic state is 1-SG.
 Alpha  occ. eigenvalues --   -2.61280  -1.66996  -1.56672  -1.56672  -0.47709
 Alpha  occ. eigenvalues --   -0.21286
 Alpha virt. eigenvalues --    0.01265   0.01421   0.01421   0.02355   0.03460
 Alpha virt. eigenvalues --    0.03916   0.03916   0.03956   0.03956   0.04716
 Alpha virt. eigenvalues --    0.05053   0.05053   0.09622   0.10915   0.10915

 Mulliken charges and spin densities:
               1          2
     1  Sc   0.555112   0.000000
     2  H   -0.555112   0.000000
 Sum of Mulliken charges =  -0.00000   0.00000

 Dipole moment (field-independent basis, Debye):
    X=              0.0000    Y=              0.0000    Z=              1.2834  Tot=              1.2834
 Quadrupole moment (field-independent basis, Debye-Ang):
   XX=            -23.5517   YY=            -23.5517   ZZ=            -22.1164
   XY=              0.0000   XZ=              0.0000   YZ=              0.0000

 P ROCCSD(T)=(maxcyc=150, Full)/Gen 5d 7f SCF=(maxcycles=300) Integral(
 MP2-0=-46.7371963\MP4SDQ=-46.7590209\CCSD=-46.7588563\CCSD(T)=-46.7757
 Normal termination of Gaussian 16 at Tue Feb 13 15:21:49 2018.
