 Gaussian 16, Revision A.03,
 Gaussian 16:  ES64L-G16RevA.03 25-Dec-2016

 ----------------------------------------------------------------------
 #P ROCCSD(T)=(MaxCyc=150, Full)/Gen SCF=(maxcycle=400) Pseudo=Read Int
 egral(NoXCTest) Pop=Regular MaxDisk=500GB Guess=Read IOp(5/15=2)
 ----------------------------------------------------------------------

 ---
 CuO
 ---
 Symbolic Z-matrix:
 Charge =  0 Multiplicity = 2

                         Standard orientation:
 ---------------------------------------------------------------------
 Center     Atomic      Atomic             Coordinates (Angstroms)
 Number     Number       Type             X           Y           Z
 ---------------------------------------------------------------------
      1         29           0        0.000000    0.000000    0.367568
      2          8           0        0.000000    0.000000   -1.332432
 ---------------------------------------------------------------------

 SCF Done:  E(ROHF) =  -211.956378451     A.U. after   20 cycles
 E2 =    -0.1375743816D+01 EUMP2 =    -0.21333212226685D+03
 CCSD(T)
 CCSD(T)= -0.21326443344D+03

 Unable to determine electronic state:  an orbital has unidentified symmetry.
 Alpha  occ. eigenvalues --   -4.96425  -3.37729  -3.37258  -3.36973  -1.22397
 Alpha  occ. eigenvalues --   -0.58208  -0.54977  -0.54533  -0.52019  -0.52017
 Alpha  occ. eigenvalues --   -0.47697  -0.41759  -0.40116
 Alpha virt. eigenvalues --   -0.01155   0.02553   0.02685   0.03542   0.04468
 Alpha virt. eigenvalues --    0.08898   0.09171   0.11740   0.13400   0.13408
 Alpha virt. eigenvalues --    0.14434   0.14508   0.14971   0.19037   0.21404

 Mulliken charges and spin densities:
               1          2
     1  Cu   0.747447   0.021530
     2  O   -0.747447   0.978470
 Sum of Mulliken charges =  -0.00000   1.00000

 Dipole moment (field-independent basis, Debye):
    X=              0.0000    Y=              0.0000    Z=              5.6264  Tot=              5.6264
 Quadrupole moment (field-independent basis, Debye-Ang):
   XX=            -15.5552   YY=            -17.0984   ZZ=            -20.1141
   XY=              0.0000   XZ=              0.0000   YZ=              0.0000

 \\#P ROCCSD(T)=(MaxCyc=150, Full)/Gen SCF=(maxcycle=400) Pseudo=Read I
 .3321223\MP4SDQ=-213.2921244\CCSD=-213.2149755\CCSD(T)=-213.2644334\RM
 Normal termination of Gaussian 16 at Mon Mar 26 02:24:43 2018.
