 Gaussian 16, Revision A.03,
 Gaussian 16:  ES64L-G16RevA.03 25-Dec-2016

 ----------------------------------------------------------------------
 #P ROCCSD(T)=(MaxCyc=150, Full)/Gen SCF=(maxcycle=400) Pseudo=Read Int
 egral(NoXCTest) Pop=Regular MaxDisk=500GB Guess=Read IOp(5/15=2)
 ----------------------------------------------------------------------

 ---
 CuO
 ---
 Symbolic Z-matrix:
 Charge =  0 Multiplicity = 2

                         Standard orientation:
 ---------------------------------------------------------------------
 Center     Atomic      Atomic             Coordinates (Angstroms)
 Number     Number       Type             X           Y           Z
 ---------------------------------------------------------------------
      1         29           0        0.000000    0.000000    0.367568
      2          8           0        0.000000    0.000000   -1.332432
 ---------------------------------------------------------------------

 SCF Done:  E(ROHF) =  -211.951783929     A.U. after    1 cycles
 E2 =    -0.1311941175D+01 EUMP2 =    -0.21326372510365D+03
 CCSD(T)
 CCSD(T)= -0.21319902212D+03

 Unable to determine electronic state:  an orbital has unidentified symmetry.
 Alpha  occ. eigenvalues --   -4.96471  -3.37775  -3.37298  -3.37011  -1.22443
 Alpha  occ. eigenvalues --   -0.58205  -0.54977  -0.54549  -0.52017  -0.52016
 Alpha  occ. eigenvalues --   -0.47696  -0.41756  -0.40128
 Alpha virt. eigenvalues --   -0.01153   0.02866   0.03028   0.04009   0.04694
 Alpha virt. eigenvalues --    0.10383   0.10737   0.13643   0.19418   0.19578
 Alpha virt. eigenvalues --    0.19605   0.20849   0.21621   0.22691   0.26054

 Mulliken charges and spin densities:
               1          2
     1  Cu   0.831244   0.020817
     2  O   -0.831244   0.979183
 Sum of Mulliken charges =   0.00000   1.00000

 Dipole moment (field-independent basis, Debye):
    X=              0.0000    Y=              0.0000    Z=              5.6417  Tot=              5.6417
 Quadrupole moment (field-independent basis, Debye-Ang):
   XX=            -15.5633   YY=            -17.1236   ZZ=            -20.0997
   XY=              0.0000   XZ=              0.0000   YZ=              0.0000

 \\#P ROCCSD(T)=(MaxCyc=150, Full)/Gen SCF=(maxcycle=400) Pseudo=Read I
 .2637251\MP4SDQ=-213.2299194\CCSD=-213.1521238\CCSD(T)=-213.1990221\RM
 Normal termination of Gaussian 16 at Sun Mar 25 23:47:55 2018.
