 Gaussian 16, Revision A.03,
 Gaussian 16:  ES64L-G16RevA.03 25-Dec-2016

 ----------------------------------------------------------------------
 #P ROHF/Gen 5d 7f SCF=(maxcycles=300) Integral(NoXCTest, DKHSO) MaxDis
 k=500GB Pop=Regular IOp(5/15=2)
 ----------------------------------------------------------------------

 ---
 CrO
 ---
 Symbolic Z-matrix:
 Charge =  0 Multiplicity = 5

                         Standard orientation:
 ---------------------------------------------------------------------
 Center     Atomic      Atomic             Coordinates (Angstroms)
 Number     Number       Type             X           Y           Z
 ---------------------------------------------------------------------
      1         24           0        0.000000    0.000000    0.400000
      2          8           0        0.000000    0.000000   -1.200000
 ---------------------------------------------------------------------

 SCF Done:  E(ROHF) =  -1124.50242653     A.U. after   34 cycles

 Unable to determine electronic state:  an orbital has unidentified symmetry.
 Alpha  occ. eigenvalues -- -222.28668 -26.83657 -22.48163 -22.46884 -22.45658
 Alpha  occ. eigenvalues --  -20.49773  -3.55669  -2.28573  -2.25084  -2.23021
 Alpha  occ. eigenvalues --   -1.15547  -0.45535  -0.43970  -0.42204  -0.09842
 Alpha  occ. eigenvalues --   -0.09375  -0.08514  -0.08027
 Alpha virt. eigenvalues --    0.00880   0.01356   0.02067   0.03412   0.04949
 Alpha virt. eigenvalues --    0.05388   0.06909   0.07642   0.07655   0.08217
 Alpha virt. eigenvalues --    0.08529   0.08836   0.13498   0.14965   0.16604

 Mulliken charges and spin densities:
               1          2
     1  Cr   1.071594   3.858787
     2  O   -1.071594   0.141213
 Sum of Mulliken charges =  -0.00000   4.00000

 Dipole moment (field-independent basis, Debye):
    X=              0.0000    Y=             -0.0000    Z=              5.9859  Tot=              5.9859
 Quadrupole moment (field-independent basis, Debye-Ang):
   XX=            -21.0753   YY=            -20.0050   ZZ=            -24.6096
   XY=              0.0000   XZ=              0.0000   YZ=             -0.0000

 Normal termination of Gaussian 16 at Tue Mar  6 17:03:33 2018.
