 Gaussian 16, Revision A.03,
 Gaussian 16:  ES64L-G16RevA.03 25-Dec-2016

 ----------------------------------------------------------------------
 #P ROCCSD(T)=(maxcyc=150, Full, SaveAmplitudes, ReadAmplitudes)/Gen 5d
  7f SCF=(maxcycles=300) Integral(NoXCTest) MaxDisk=500GB Pop=Regular P
 seudo=Read Guess=Read IOp(5/15=2)
 ----------------------------------------------------------------------

 ---
 ScO
 ---
 Symbolic Z-matrix:
 Charge =  0 Multiplicity = 2

                         Standard orientation:
 ---------------------------------------------------------------------
 Center     Atomic      Atomic             Coordinates (Angstroms)
 Number     Number       Type             X           Y           Z
 ---------------------------------------------------------------------
      1         21           0        0.000000    0.000000    0.413793
      2          8           0        0.000000    0.000000   -1.086207
 ---------------------------------------------------------------------

 SCF Done:  E(ROHF) =  -62.0453521123     A.U. after   16 cycles
 E2 =    -0.6759903593D+00 EUMP2 =    -0.62721342471550D+02
 CCSD(T)
 CCSD(T)= -0.62748587558D+02

 The electronic state is 2-SG.
 Alpha  occ. eigenvalues --   -2.64281  -1.68539  -1.58060  -1.58060  -1.11527
 Alpha  occ. eigenvalues --   -0.47812  -0.47812  -0.44953  -0.22689
 Alpha virt. eigenvalues --    0.00624   0.00624   0.01925   0.02296   0.03708
 Alpha virt. eigenvalues --    0.03708   0.03858   0.03858   0.04126   0.04327
 Alpha virt. eigenvalues --    0.04327   0.06613   0.09815   0.09815   0.10841

 Mulliken charges and spin densities:
               1          2
     1  Sc   1.284956   0.978561
     2  O   -1.284956   0.021439
 Sum of Mulliken charges =  -0.00000   1.00000

 Dipole moment (field-independent basis, Debye):
    X=              0.0000    Y=              0.0000    Z=              2.8359  Tot=              2.8359
 Quadrupole moment (field-independent basis, Debye-Ang):
   XX=            -21.9425   YY=            -21.9425   ZZ=            -30.8152
   XY=              0.0000   XZ=              0.0000   YZ=              0.0000

 \\#P ROCCSD(T)=(maxcyc=150, Full, SaveAmplitudes, ReadAmplitudes)/Gen
 28\CCSD=-62.7135392\CCSD(T)=-62.7485876\RMSD=3.811e-09\PG=C*V [C*(O1Sc
 Normal termination of Gaussian 16 at Tue Feb 27 13:07:37 2018.
