 Gaussian 16, Revision A.03,
 Gaussian 16:  ES64L-G16RevA.03 25-Dec-2016

 ----------------------------------------------------------------------
 #P ROCCSD(T)=(MaxCyc=150, Full)/Gen SCF=(maxcycle=400) Integral(DKHSO,
  NoXCTest) Pop=Regular MaxDisk=500GB Guess=Read IOp(5/15=2)
 ----------------------------------------------------------------------

 ---
 FeH
 ---
 Symbolic Z-matrix:
 Charge =  0 Multiplicity = 4

                         Standard orientation:
 ---------------------------------------------------------------------
 Center     Atomic      Atomic             Coordinates (Angstroms)
 Number     Number       Type             X           Y           Z
 ---------------------------------------------------------------------
      1         26           0        0.000000    0.000000    0.070370
      2          1           0        0.000000    0.000000   -1.829630
 ---------------------------------------------------------------------

 SCF Done:  E(ROHF) =  -1271.81289898     A.U. after   73 cycles
 E2 =    -0.1201588534D+01 EUMP2 =    -0.12730144875189D+04
 CCSD(T)
 CCSD(T)= -0.12730037388D+04

 Unable to determine electronic state:  an orbital has unidentified symmetry.
 Alpha  occ. eigenvalues -- -263.52563 -32.29604 -27.36576 -27.36576 -27.36357
 Alpha  occ. eigenvalues --   -4.19486  -2.74527  -2.74262  -2.74262  -0.48589
 Alpha  occ. eigenvalues --   -0.48589  -0.48421  -0.43443  -0.42423  -0.31443
 Alpha virt. eigenvalues --   -0.01079   0.02085   0.02085   0.03161   0.03424
 Alpha virt. eigenvalues --    0.06205   0.06678   0.06693   0.06872   0.06872
 Alpha virt. eigenvalues --    0.07654   0.07654   0.10309   0.15345   0.17574

 Mulliken charges and spin densities:
               1          2
     1  Fe   0.362082   2.998650
     2  H   -0.362082   0.001350
 Sum of Mulliken charges =  -0.00000   3.00000

 Dipole moment (field-independent basis, Debye):
    X=             -0.0000    Y=              0.0000    Z=              5.2526  Tot=              5.2526
 Quadrupole moment (field-independent basis, Debye-Ang):
   XX=            -15.5309   YY=            -15.5309   ZZ=            -20.1636
   XY=             -0.0000   XZ=              0.0000   YZ=              0.0000

 \\#P ROCCSD(T)=(MaxCyc=150, Full)/Gen SCF=(maxcycle=400) Integral(DKHS
 144875\MP4SDQ=-1272.9816449\CCSD=-1272.9745956\CCSD(T)=-1273.0037388\R
 Normal termination of Gaussian 16 at Wed Mar  7 16:39:21 2018.
