 Gaussian 16, Revision A.03,
 Gaussian 16:  ES64L-G16RevA.03 25-Dec-2016

 ----------------------------------------------------------------------
 #P ROCCSD(T)=(MaxCyc=150, Full)/Gen SCF=(maxcycle=400, vshift=200) Int
 egral(DKHSO, NoXCTest) Pop=Regular MaxDisk=500GB Guess=Read IOp(5/15=2
 )
 ----------------------------------------------------------------------

 ---
 FeH
 ---
 Symbolic Z-matrix:
 Charge =  0 Multiplicity = 4

                         Standard orientation:
 ---------------------------------------------------------------------
 Center     Atomic      Atomic             Coordinates (Angstroms)
 Number     Number       Type             X           Y           Z
 ---------------------------------------------------------------------
      1         26           0        0.000000    0.000000    0.070370
      2          1           0        0.000000    0.000000   -1.829630
 ---------------------------------------------------------------------

 SCF Done:  E(ROHF) =  -1271.81120517     A.U. after   39 cycles
 E2 =    -0.1151061524D+01 EUMP2 =    -0.12729622666920D+04
 CCSD(T)
 CCSD(T)= -0.12729532640D+04

 Unable to determine electronic state:  an orbital has unidentified symmetry.
 Alpha  occ. eigenvalues -- -263.52568 -32.29623 -27.36597 -27.36597 -27.36378
 Alpha  occ. eigenvalues --   -4.19495  -2.74536  -2.74269  -2.74269  -0.48583
 Alpha  occ. eigenvalues --   -0.48583  -0.48415  -0.43435  -0.42412  -0.31441
 Alpha virt. eigenvalues --   -0.01072   0.02325   0.02325   0.03445   0.03703
 Alpha virt. eigenvalues --    0.08345   0.08345   0.09408   0.10041   0.10083
 Alpha virt. eigenvalues --    0.10354   0.10354   0.11152   0.16886   0.22254

 Mulliken charges and spin densities:
               1          2
     1  Fe   0.431376   2.999183
     2  H   -0.431376   0.000817
 Sum of Mulliken charges =  -0.00000   3.00000

 Dipole moment (field-independent basis, Debye):
    X=              0.0000    Y=              0.0000    Z=              5.2577  Tot=              5.2577
 Quadrupole moment (field-independent basis, Debye-Ang):
   XX=            -15.5446   YY=            -15.5446   ZZ=            -20.1509
   XY=              0.0000   XZ=              0.0000   YZ=              0.0000

 \\#P ROCCSD(T)=(MaxCyc=150, Full)/Gen SCF=(maxcycle=400, vshift=200) I
 PMP2-0=-1272.9622667\MP4SDQ=-1272.9328646\CCSD=-1272.9266586\CCSD(T)=-
 Normal termination of Gaussian 16 at Wed Mar  7 12:10:18 2018.
