 Gaussian 16, Revision A.03,
 Gaussian 16:  ES64L-G16RevA.03 25-Dec-2016

 ----------------------------------------------------------------------
 #P ROCCSD(T)=(maxcyc=150, Full)/Gen 5d 7f SCF=(maxcycles=300, NoVarAcc
 , VShift=200) MaxDisk=100GB Pop=Regular Pseudo=Read Guess=Read
 ----------------------------------------------------------------------

 --
 Mn
 --
 Symbolic Z-matrix:
 Charge =  0 Multiplicity = 6

                         Standard orientation:
 ---------------------------------------------------------------------
 Center     Atomic      Atomic             Coordinates (Angstroms)
 Number     Number       Type             X           Y           Z
 ---------------------------------------------------------------------
      1         25           0        0.000000    0.000000    0.000000
 ---------------------------------------------------------------------

 SCF Done:  E(ROHF) =  -103.693419196     A.U. after   18 cycles
 E2 =    -0.5828036475D+00 EUMP2 =    -0.10427622284352D+03
 CCSD(T)
 CCSD(T)= -0.10429875705D+03

 The electronic state is 6-A1G.
 Alpha  occ. eigenvalues --   -4.08860  -2.75015  -2.75015  -2.75015  -0.62659
 Alpha  occ. eigenvalues --   -0.62659  -0.62659  -0.62659  -0.62659  -0.26777
 Alpha virt. eigenvalues --    0.01800   0.01800   0.01800   0.02665   0.06491
 Alpha virt. eigenvalues --    0.06491   0.06491   0.08963   0.08963   0.08963
 Alpha virt. eigenvalues --    0.08963   0.08963   0.13921   0.23998   0.23998

 Mulliken charges and spin densities:
               1          2
     1  Mn  -0.000000   5.000000
 Sum of Mulliken charges =  -0.00000   5.00000

 Dipole moment (field-independent basis, Debye):
    X=              0.0000    Y=              0.0000    Z=              0.0000  Tot=              0.0000
 Quadrupole moment (field-independent basis, Debye-Ang):
   XX=            -18.7668   YY=            -18.7668   ZZ=            -18.7668
   XY=             -0.0000   XZ=              0.0000   YZ=             -0.0000

 1\1\GINC-C402-122\SP\ROCCSD(T)-Full\Gen\Mn1(6)\AANNABE\12-Mar-2018\0\\
 #P ROCCSD(T)=(maxcyc=150, Full)/Gen 5d 7f SCF=(maxcycles=300, NoVarAcc
 , VShift=200) MaxDisk=100GB Pop=Regular Pseudo=Read Guess=Read\\Mn\\0,
 6\Mn,0,0.,0.,0.\\Version=ES64L-G16RevA.03\State=6-A1G\HF=-103.6934192\
 MP2=-104.2762228\MP3=-104.2774646\PUHF=-103.6934192\PMP2-0=-104.276222
 8\MP4SDQ=-104.2804781\CCSD=-104.2805728\CCSD(T)=-104.298757\RMSD=6.715
 e-09\PG=OH [O(Mn1)]\\@

 Normal termination of Gaussian 16 at Mon Mar 12 13:47:04 2018.
