 Gaussian 16, Revision A.03,
 Gaussian 16:  ES64L-G16RevA.03 25-Dec-2016

 ----------------------------------------------------------------------
 #P ROCCSD(T)=(maxcyc=150, Full, SaveAmplitudes, ReadAmplitudes)/Gen 5d
  7f SCF=(maxcycles=300, VShift=400) Integral(NoXCTest) MaxDisk=500GB P
 op=Full Pseudo=Read Guess=Read IOp(5/15=2)
 ----------------------------------------------------------------------

 ---
 MnO
 ---
 Symbolic Z-matrix:
 Charge =  0 Multiplicity = 6

                         Standard orientation:
 ---------------------------------------------------------------------
 Center     Atomic      Atomic             Coordinates (Angstroms)
 Number     Number       Type             X           Y           Z
 ---------------------------------------------------------------------
      1         25           0        0.000000    0.000000    0.363636
      2          8           0        0.000000    0.000000   -1.136364
 ---------------------------------------------------------------------

 SCF Done:  E(ROHF) =  -119.332388705     A.U. after   63 cycles
 E2 =    -0.9357392537D+00 EUMP2 =    -0.12026812795879D+03
 CCSD(T)
 CCSD(T)= -0.12028140143D+03

 The electronic state is 6-SG.
 Alpha  occ. eigenvalues --   -4.16327  -2.75169  -2.75169  -2.73085  -1.18151
 Alpha  occ. eigenvalues --   -0.68055  -0.68055  -0.63988  -0.63988  -0.53649
 Alpha  occ. eigenvalues --   -0.38546  -0.38546  -0.33484
 Alpha virt. eigenvalues --   -0.00676   0.01983   0.01983   0.03281   0.03845
 Alpha virt. eigenvalues --    0.06951   0.06951   0.08657   0.08657   0.08729
 Alpha virt. eigenvalues --    0.09513   0.09513   0.13268   0.14646   0.23393

 Mulliken charges and spin densities:
               1          2
     1  Mn   1.034492   4.820525
     2  O   -1.034492   0.179475
 Sum of Mulliken charges =  -0.00000   5.00000

 Dipole moment (field-independent basis, Debye):
    X=              0.0000    Y=              0.0000    Z=              6.3639  Tot=              6.3639
 Quadrupole moment (field-independent basis, Debye-Ang):
   XX=            -19.1343   YY=            -19.1342   ZZ=            -22.6332
   XY=              0.0000   XZ=              0.0000   YZ=              0.0000

 \\#P ROCCSD(T)=(maxcyc=150, Full, SaveAmplitudes, ReadAmplitudes)/Gen
 DQ=-120.2563758\CCSD=-120.2385347\CCSD(T)=-120.2814014\RMSD=8.989e-09\
 Normal termination of Gaussian 16 at Sun Mar 18 19:02:16 2018.
