 Gaussian 16, Revision A.03,
 Gaussian 16:  ES64L-G16RevA.03 25-Dec-2016

 ----------------------------------------------------------------------
 #P ROCCSD(T)=(maxcyc=150, Full, SaveAmplitudes, ReadAmplitudes)/Gen 5d
  7f SCF=(maxcycles=300) Integral(NoXCTest, DKHSO) MaxDisk=500GB Pop=Re
 gular Guess=Read IOp(5/15=2)
 ----------------------------------------------------------------------

 ---
 CrO
 ---
 Symbolic Z-matrix:
 Charge =  0 Multiplicity = 5

                         Standard orientation:
 ---------------------------------------------------------------------
 Center     Atomic      Atomic             Coordinates (Angstroms)
 Number     Number       Type             X           Y           Z
 ---------------------------------------------------------------------
      1         24           0        0.000000    0.000000    0.475000
      2          8           0        0.000000    0.000000   -1.425000
 ---------------------------------------------------------------------

 SCF Done:  E(ROHF) =  -1124.47306720     A.U. after   43 cycles
 E2 =    -0.1283426866D+01 EUMP2 =    -0.11257564940660D+04
 CCSD(T)
 CCSD(T)= -0.11258010674D+04

 Unable to determine electronic state:  an orbital has unidentified symmetry.
 Alpha  occ. eigenvalues -- -222.25019 -26.84166 -22.47788 -22.47734 -22.47312
 Alpha  occ. eigenvalues --  -20.44969  -3.70425  -2.47591  -2.43246  -2.42447
 Alpha  occ. eigenvalues --   -1.07483  -0.58849  -0.56602  -0.56430  -0.53675
 Alpha  occ. eigenvalues --   -0.33387  -0.32854  -0.31899
 Alpha virt. eigenvalues --   -0.05218   0.00539   0.01191   0.01571   0.03698
 Alpha virt. eigenvalues --    0.04798   0.05973   0.07335   0.07339   0.07626
 Alpha virt. eigenvalues --    0.08324   0.08572   0.12657   0.12813   0.15493

 Mulliken charges and spin densities:
               1          2
     1  Cr   1.124529   3.966455
     2  O   -1.124529   0.033545
 Sum of Mulliken charges =  -0.00000   4.00000

 Dipole moment (field-independent basis, Debye):
    X=              0.0000    Y=              0.0000    Z=             10.1138  Tot=             10.1138
 Quadrupole moment (field-independent basis, Debye-Ang):
   XX=            -20.1379   YY=            -19.4443   ZZ=            -25.2572
   XY=              0.0000   XZ=              0.0000   YZ=              0.0000

 \\#P ROCCSD(T)=(maxcyc=150, Full, SaveAmplitudes, ReadAmplitudes)/Gen
 CSD=-1125.7455296\CCSD(T)=-1125.8010674\RMSD=9.973e-09\PG=C*V [C*(O1Cr
 Normal termination of Gaussian 16 at Wed Mar  7 01:20:50 2018.
