 Gaussian 16, Revision A.03,
 Gaussian 16:  ES64L-G16RevA.03 25-Dec-2016

 ----------------------------------------------------------------------
 #P ROCCSD(T)=(maxcyc=150, Full)/Gen 5d 7f SCF=(maxcycles=300) Integral
 (NoXCTest) MaxDisk=500GB Pop=Regular Pseudo=Read IOp(5/15=2) Guess=Rea
 d
 ----------------------------------------------------------------------

 ---
 ScH
 ---
 Symbolic Z-matrix:
 Charge =  0 Multiplicity = 1

                         Standard orientation:
 ---------------------------------------------------------------------
 Center     Atomic      Atomic             Coordinates (Angstroms)
 Number     Number       Type             X           Y           Z
 ---------------------------------------------------------------------
      1         21           0        0.000000    0.000000    0.054545
      2          1           0        0.000000    0.000000   -1.145455
 ---------------------------------------------------------------------

 SCF Done:  E(ROHF) =  -46.4819716101     A.U. after    9 cycles
 E2 =    -0.4405182258D+00 EUMP2 =    -0.46922489835842D+02
 CCSD(T)
 CCSD(T)= -0.46957579424D+02

 The electronic state is 1-SG.
 Alpha  occ. eigenvalues --   -2.62264  -1.63705  -1.59036  -1.59036  -0.46910
 Alpha  occ. eigenvalues --   -0.21454
 Alpha virt. eigenvalues --    0.01317   0.01317   0.01344   0.01671   0.02607
 Alpha virt. eigenvalues --    0.02607   0.02627   0.02641   0.02641   0.04060
 Alpha virt. eigenvalues --    0.04410   0.04410   0.07048   0.07415   0.07415

 Mulliken charges and spin densities:
               1          2
     1  Sc   0.307859   0.000000
     2  H   -0.307859   0.000000
 Sum of Mulliken charges =  -0.00000   0.00000

 Dipole moment (field-independent basis, Debye):
    X=              0.0000    Y=              0.0000    Z=              0.7853  Tot=              0.7853
 Quadrupole moment (field-independent basis, Debye-Ang):
   XX=            -23.6949   YY=            -23.6949   ZZ=            -22.5563
   XY=              0.0000   XZ=              0.0000   YZ=              0.0000

 P ROCCSD(T)=(maxcyc=150, Full)/Gen 5d 7f SCF=(maxcycles=300) Integral(
 MP2-0=-46.9224898\MP4SDQ=-46.9392183\CCSD=-46.9388066\CCSD(T)=-46.9575
 Normal termination of Gaussian 16 at Tue Feb 13 20:14:10 2018.
