 Gaussian 16, Revision A.03,
 Gaussian 16:  ES64L-G16RevA.03 25-Dec-2016

 ----------------------------------------------------------------------
 #P ROCCSD(T)=(maxcyc=150, Full, SaveAmplitudes, ReadAmplitudes)/Gen 5d
  7f SCF=(maxcycles=300) Integral(NoXCTest) MaxDisk=500GB Pop=Regular P
 seudo=Read Guess=Read
 ----------------------------------------------------------------------

 ---
 ScO
 ---
 Symbolic Z-matrix:
 Charge =  0 Multiplicity = 2

                         Standard orientation:
 ---------------------------------------------------------------------
 Center     Atomic      Atomic             Coordinates (Angstroms)
 Number     Number       Type             X           Y           Z
 ---------------------------------------------------------------------
      1         21           0        0.000000    0.000000    0.524138
      2          8           0        0.000000    0.000000   -1.375862
 ---------------------------------------------------------------------

 SCF Done:  E(ROHF) =  -61.9276205510     A.U. after   17 cycles
 E2 =    -0.7208869965D+00 EUMP2 =    -0.62648507547505D+02
 CCSD(T)
 CCSD(T)= -0.62678725519D+02

 The electronic state is 2-SG.
 Alpha  occ. eigenvalues --   -2.71761  -1.68331  -1.68246  -1.68246  -1.10960
 Alpha  occ. eigenvalues --   -0.40277  -0.36512  -0.36512  -0.27451
 Alpha virt. eigenvalues --   -0.00871  -0.00871   0.00804   0.01813   0.02574
 Alpha virt. eigenvalues --    0.02574   0.02606   0.02606   0.03260   0.03260
 Alpha virt. eigenvalues --    0.03437   0.03909   0.05281   0.05281   0.08865

 Mulliken charges and spin densities:
               1          2
     1  Sc   1.223913   0.983165
     2  O   -1.223913   0.016835
 Sum of Mulliken charges =  -0.00000   1.00000

 Dipole moment (field-independent basis, Debye):
    X=              0.0000    Y=              0.0000    Z=              6.6291  Tot=              6.6291
 Quadrupole moment (field-independent basis, Debye-Ang):
   XX=            -21.9655   YY=            -21.9655   ZZ=            -34.0504
   XY=              0.0000   XZ=              0.0000   YZ=              0.0000

 \\#P ROCCSD(T)=(maxcyc=150, Full, SaveAmplitudes, ReadAmplitudes)/Gen
 276206\PMP2-0=-62.6485075\CCSD=-62.6291382\CCSD(T)=-62.6787255\RMSD=3.
 Normal termination of Gaussian 16 at Wed Mar  7 13:00:33 2018.
