 Gaussian 16, Revision A.03,
 Gaussian 16:  ES64L-G16RevA.03 25-Dec-2016

 ----------------------------------------------------------------------
 #P ROCCSD(T)=(maxcyc=150, Full, SaveAmplitudes, ReadAmplitudes)/Gen 5d
  7f SCF=(maxcycles=300) Integral(NoXCTest) MaxDisk=500GB Pop=Regular P
 seudo=Read Guess=Read
 ----------------------------------------------------------------------

 ---
 MnH
 ---
 Symbolic Z-matrix:
 Charge =  0 Multiplicity = 7

                         Standard orientation:
 ---------------------------------------------------------------------
 Center     Atomic      Atomic             Coordinates (Angstroms)
 Number     Number       Type             X           Y           Z
 ---------------------------------------------------------------------
      1         25           0        0.000000    0.000000    0.046154
      2          1           0        0.000000    0.000000   -1.153846
 ---------------------------------------------------------------------

 SCF Done:  E(ROHF) =  -104.135360710     A.U. after   20 cycles
 E2 =    -0.6382146753D+00 EUMP2 =    -0.10477357538542D+03
 CCSD(T)
 CCSD(T)= -0.10479332655D+03

 The electronic state is 7-SG.
 Alpha  occ. eigenvalues --   -4.09233  -2.76065  -2.74971  -2.74971  -0.67841
 Alpha  occ. eigenvalues --   -0.63229  -0.63229  -0.63082  -0.63082  -0.41083
 Alpha  occ. eigenvalues --   -0.23940
 Alpha virt. eigenvalues --    0.01282   0.01282   0.01902   0.03176   0.05089
 Alpha virt. eigenvalues --    0.05089   0.05738   0.05835   0.05835   0.06152
 Alpha virt. eigenvalues --    0.06152   0.08198   0.13984   0.15471   0.17777

 Mulliken charges and spin densities:
               1          2
     1  Mn   0.569222   5.895165
     2  H   -0.569222   0.104835
 Sum of Mulliken charges =  -0.00000   6.00000

 Dipole moment (field-independent basis, Debye):
    X=              0.0000    Y=              0.0000    Z=             -0.3175  Tot=              0.3175
 Quadrupole moment (field-independent basis, Debye-Ang):
   XX=            -15.8225   YY=            -15.8225   ZZ=            -25.1019
   XY=              0.0000   XZ=              0.0000   YZ=              0.0000

 \\#P ROCCSD(T)=(maxcyc=150, Full, SaveAmplitudes, ReadAmplitudes)/Gen
 4.1353607\PMP2-0=-104.7735754\CCSD=-104.7747089\CCSD(T)=-104.7933266\R
 Normal termination of Gaussian 16 at Sun Feb 25 23:03:54 2018.
