 Gaussian 16, Revision A.03,
 Gaussian 16:  ES64L-G16RevA.03 25-Dec-2016

 ----------------------------------------------------------------------
 #P ROCCSD(T)=(maxcyc=150, Window=(7,0), SaveAmplitudes, ReadAmplitudes
 )/Gen 5d 7f SCF=(maxcycles=300) Integral(NoXCTest, DKHSO) MaxDisk=500G
 B Pop=Regular Guess=Read
 ----------------------------------------------------------------------

 ---
 MnO
 ---
 Symbolic Z-matrix:
 Charge =  0 Multiplicity = 6

                         Standard orientation:
 ---------------------------------------------------------------------
 Center     Atomic      Atomic             Coordinates (Angstroms)
 Number     Number       Type             X           Y           Z
 ---------------------------------------------------------------------
      1         25           0        0.000000    0.000000    0.339394
      2          8           0        0.000000    0.000000   -1.060606
 ---------------------------------------------------------------------

 SCF Done:  E(ROHF) =  -1232.15603618     A.U. after   21 cycles
 E2 =    -0.9561090522D+00 EUMP2 =    -0.12331121452367D+04
 CCSD(T)
 CCSD(T)= -0.12331126532D+04

 The electronic state is 6-SG.
 Alpha  occ. eigenvalues -- -242.52654 -29.62986 -24.98465 -24.98465 -24.97643
 Alpha  occ. eigenvalues --  -20.51484  -4.08698  -2.73737  -2.73737  -2.72126
 Alpha  occ. eigenvalues --   -1.22778  -0.70488  -0.70488  -0.63165  -0.63165
 Alpha  occ. eigenvalues --   -0.55645  -0.41013  -0.41013  -0.31725
 Alpha virt. eigenvalues --    0.01157   0.01981   0.01981   0.03072   0.04829
 Alpha virt. eigenvalues --    0.05915   0.05915   0.05929   0.05929   0.06674
 Alpha virt. eigenvalues --    0.07142   0.07142   0.11546   0.14277   0.17840

 Mulliken charges and spin densities:
               1          2
     1  Mn   1.061863   4.776889
     2  O   -1.061863   0.223111
 Sum of Mulliken charges =  -0.00000   5.00000

 Dipole moment (field-independent basis, Debye):
    X=              0.0000    Y=              0.0000    Z=              4.1799  Tot=              4.1799
 Quadrupole moment (field-independent basis, Debye-Ang):
   XX=            -20.0042   YY=            -20.0042   ZZ=            -23.5815
   XY=              0.0000   XZ=              0.0000   YZ=             -0.0000

 1\1\GINC-C493-051\SP\ROCCSD(T)-RW\Gen\Mn1O1(6)\AANNABE\14-Mar-2018\0\\
 #P ROCCSD(T)=(maxcyc=150, Window=(7,0), SaveAmplitudes, ReadAmplitudes
 )/Gen 5d 7f SCF=(maxcycles=300) Integral(NoXCTest, DKHSO) MaxDisk=500G
 B Pop=Regular Guess=Read\\MnO\\0,6\Mn,0,0.,0.,0.\O,0,0.,0.,1.4\\Versio
 n=ES64L-G16RevA.03\State=6-SG\HF=-1232.1560362\MP2=-1233.1121452\PUHF=
 -1232.1560362\PMP2-0=-1233.1121452\CCSD=-1233.0705456\CCSD(T)=-1233.11
 26532\RMSD=6.217e-09\PG=C*V [C*(O1Mn1)]\\@

 Normal termination of Gaussian 16 at Wed Mar 14 15:17:21 2018.
