 Gaussian 16, Revision A.03,
 Gaussian 16:  ES64L-G16RevA.03 25-Dec-2016

 ----------------------------------------------------------------------
 #P ROCCSD(T)=(maxcyc=150, Full, SaveAmplitudes, ReadAmplitudes)/Gen 5d
  7f SCF=(maxcycles=300) Integral(NoXCTest) MaxDisk=500GB Pop=Regular P
 seudo=Read Guess=Read IOp(5/15=2)
 ----------------------------------------------------------------------

 ---
 MnH
 ---
 Symbolic Z-matrix:
 Charge =  0 Multiplicity = 7

                         Standard orientation:
 ---------------------------------------------------------------------
 Center     Atomic      Atomic             Coordinates (Angstroms)
 Number     Number       Type             X           Y           Z
 ---------------------------------------------------------------------
      1         25           0        0.000000    0.000000    0.046154
      2          1           0        0.000000    0.000000   -1.153846
 ---------------------------------------------------------------------

 SCF Done:  E(ROHF) =  -104.124683174     A.U. after   28 cycles
 E2 =    -0.5985766594D+00 EUMP2 =    -0.10472325983389D+03
 CCSD(T)
 CCSD(T)= -0.10474293432D+03

 The electronic state is 7-SG.
 Alpha  occ. eigenvalues --   -4.17133  -2.76660  -2.75644  -2.75644  -0.68682
 Alpha  occ. eigenvalues --   -0.64401  -0.64401  -0.64250  -0.64250  -0.41440
 Alpha  occ. eigenvalues --   -0.23504
 Alpha virt. eigenvalues --    0.01397   0.01397   0.02081   0.03331   0.05883
 Alpha virt. eigenvalues --    0.05883   0.08511   0.08511   0.08643   0.08904
 Alpha virt. eigenvalues --    0.08919   0.08919   0.14184   0.21992   0.22766

 Mulliken charges and spin densities:
               1          2
     1  Mn   0.484355   5.930399
     2  H   -0.484355   0.069601
 Sum of Mulliken charges =  -0.00000   6.00000

 Dipole moment (field-independent basis, Debye):
    X=              0.0000    Y=              0.0000    Z=             -0.3663  Tot=              0.3663
 Quadrupole moment (field-independent basis, Debye-Ang):
   XX=            -15.9008   YY=            -15.9008   ZZ=            -25.2981
   XY=              0.0000   XZ=              0.0000   YZ=              0.0000

 \\#P ROCCSD(T)=(maxcyc=150, Full, SaveAmplitudes, ReadAmplitudes)/Gen
 .7246627\CCSD=-104.7257758\CCSD(T)=-104.7429343\RMSD=4.051e-09\PG=C*V
 Normal termination of Gaussian 16 at Sun Feb 25 22:33:02 2018.
