 Gaussian 16, Revision A.03,
 Gaussian 16:  ES64L-G16RevA.03 25-Dec-2016

 ----------------------------------------------------------------------
 #P ROCCSD(T)=(maxcyc=150, Full, SaveAmplitudes, ReadAmplitudes)/Gen 5d
  7f SCF=(maxcycles=300, VShift=400) Integral(NoXCTest) MaxDisk=500GB P
 op=Full Pseudo=Read Guess=Read
 ----------------------------------------------------------------------

 ---
 MnH
 ---
 Symbolic Z-matrix:
 Charge =  0 Multiplicity = 7

                         Standard orientation:
 ---------------------------------------------------------------------
 Center     Atomic      Atomic             Coordinates (Angstroms)
 Number     Number       Type             X           Y           Z
 ---------------------------------------------------------------------
      1         25           0        0.000000    0.000000    0.061538
      2          1           0        0.000000    0.000000   -1.538462
 ---------------------------------------------------------------------

 SCF Done:  E(ROHF) =  -104.249444482     A.U. after   31 cycles
 E2 =    -0.6068369512D+00 EUMP2 =    -0.10485628143328D+03
 CCSD(T)
 CCSD(T)= -0.10487703343D+03

 The electronic state is 7-SG.
 Alpha  occ. eigenvalues --   -4.13829  -2.76581  -2.76581  -2.76498  -0.65180
 Alpha  occ. eigenvalues --   -0.65005  -0.65005  -0.64372  -0.64372  -0.41412
 Alpha  occ. eigenvalues --   -0.25660
 Alpha virt. eigenvalues --    0.01249   0.01249   0.02115   0.02967   0.05118
 Alpha virt. eigenvalues --    0.05118   0.05659   0.05812   0.05812   0.06195
 Alpha virt. eigenvalues --    0.06195   0.08880   0.13642   0.14234   0.18039

 Mulliken charges and spin densities:
               1          2
     1  Mn   0.366867   5.945936
     2  H   -0.366867   0.054064
 Sum of Mulliken charges =  -0.00000   6.00000

 Dipole moment (field-independent basis, Debye):
    X=              0.0000    Y=              0.0000    Z=              0.9643  Tot=              0.9643
 Quadrupole moment (field-independent basis, Debye-Ang):
   XX=            -16.0311   YY=            -16.0311   ZZ=            -25.9478
   XY=              0.0000   XZ=              0.0000   YZ=              0.0000

 \\#P ROCCSD(T)=(maxcyc=150, Full, SaveAmplitudes, ReadAmplitudes)/Gen
 \PUHF=-104.2494445\PMP2-0=-104.8562814\CCSD=-104.8602211\CCSD(T)=-104.
 Normal termination of Gaussian 16 at Wed Apr  4 09:45:38 2018.
