 Gaussian 16, Revision A.03,
 Gaussian 16:  ES64L-G16RevA.03 25-Dec-2016

 ----------------------------------------------------------------------
 #P ROCCSD(T)=(maxcyc=150, Full)/Gen 5d 7f SCF=(maxcycles=300, NoVarAcc
 , VShift=200) MaxDisk=100GB Pop=Regular Pseudo=Read Guess=Read IOp(5/1
 5=2)
 ----------------------------------------------------------------------

 --
 Mn
 --
 Symbolic Z-matrix:
 Charge =  0 Multiplicity = 6

                         Standard orientation:
 ---------------------------------------------------------------------
 Center     Atomic      Atomic             Coordinates (Angstroms)
 Number     Number       Type             X           Y           Z
 ---------------------------------------------------------------------
      1         25           0        0.000000    0.000000    0.000000
 ---------------------------------------------------------------------

 SCF Done:  E(ROHF) =  -103.699113454     A.U. after   21 cycles
 E2 =    -0.5729080990D+00 EUMP2 =    -0.10427202155319D+03
 CCSD(T)
 CCSD(T)= -0.10429284879D+03

 The electronic state is 6-A1G.
 Alpha  occ. eigenvalues --   -4.13020  -2.75785  -2.75785  -2.75785  -0.63844
 Alpha  occ. eigenvalues --   -0.63844  -0.63844  -0.63844  -0.63844  -0.26718
 Alpha virt. eigenvalues --    0.01848   0.01848   0.01848   0.02667   0.06603
 Alpha virt. eigenvalues --    0.06603   0.06603   0.08960   0.08960   0.08960
 Alpha virt. eigenvalues --    0.08960   0.08960   0.13928   0.24275   0.24275

 Mulliken charges and spin densities:
               1          2
     1  Mn  -0.000000   5.000000
 Sum of Mulliken charges =  -0.00000   5.00000

 Dipole moment (field-independent basis, Debye):
    X=              0.0000    Y=              0.0000    Z=              0.0000  Tot=              0.0000
 Quadrupole moment (field-independent basis, Debye-Ang):
   XX=            -18.7780   YY=            -18.7780   ZZ=            -18.7780
   XY=              0.0000   XZ=             -0.0000   YZ=             -0.0000

 1\1\GINC-C506-093\SP\ROCCSD(T)-Full\Gen\Mn1(6)\AANNABE\04-Apr-2018\0\\
 #P ROCCSD(T)=(maxcyc=150, Full)/Gen 5d 7f SCF=(maxcycles=300, NoVarAcc
 , VShift=200) MaxDisk=100GB Pop=Regular Pseudo=Read Guess=Read IOp(5/1
 5=2)\\Mn\\0,6\Mn,0,0.,0.,0.\\Version=ES64L-G16RevA.03\State=6-A1G\HF=-
 103.6991135\MP2=-104.2720216\MP3=-104.2718112\PUHF=-103.6991135\PMP2-0
 =-104.2720216\MP4SDQ=-104.2753247\CCSD=-104.2752881\CCSD(T)=-104.29284
 88\RMSD=9.156e-09\PG=OH [O(Mn1)]\\@

 Normal termination of Gaussian 16 at Wed Apr  4 07:31:49 2018.
