 Gaussian 16, Revision A.03,
 Gaussian 16:  ES64L-G16RevA.03 25-Dec-2016

 ----------------------------------------------------------------------
 #P ROCCSD(T)=(maxcyc=150, Full, SaveAmplitudes, ReadAmplitudes)/Gen 5d
  7f SCF=(maxcycles=300) Integral(NoXCTest) MaxDisk=500GB Pop=Regular P
 seudo=Read Guess=Read IOp(5/15=2)
 ----------------------------------------------------------------------

 ---
 TiO
 ---
 Symbolic Z-matrix:
 Charge =  0 Multiplicity = 3

                         Standard orientation:
 ---------------------------------------------------------------------
 Center     Atomic      Atomic             Coordinates (Angstroms)
 Number     Number       Type             X           Y           Z
 ---------------------------------------------------------------------
      1         22           0        0.000000    0.000000    0.346667
      2          8           0        0.000000    0.000000   -0.953333
 ---------------------------------------------------------------------

 SCF Done:  E(ROHF) =  -73.4012109908     A.U. after   23 cycles
 E2 =    -0.7336765800D+00 EUMP2 =    -0.74134887570804D+02
 CCSD(T)
 CCSD(T)= -0.74159756219D+02

 Unable to determine electronic state:  an orbital has unidentified symmetry.
 Alpha  occ. eigenvalues --   -2.97116  -1.95656  -1.82002  -1.82002  -1.14529
 Alpha  occ. eigenvalues --   -0.58987  -0.58987  -0.52393  -0.35894  -0.21796
 Alpha virt. eigenvalues --    0.01213   0.01213   0.02326   0.02530   0.04835
 Alpha virt. eigenvalues --    0.04835   0.05021   0.05172   0.05331   0.05802
 Alpha virt. eigenvalues --    0.05802   0.08547   0.11750   0.13801   0.14665

 Mulliken charges and spin densities:
               1          2
     1  Ti   0.698704   2.040961
     2  O   -0.698704  -0.040961
 Sum of Mulliken charges =  -0.00000   2.00000

 Dipole moment (field-independent basis, Debye):
    X=              0.0000    Y=              0.0000    Z=              0.7243  Tot=              0.7243
 Quadrupole moment (field-independent basis, Debye-Ang):
   XX=            -21.9076   YY=            -21.9076   ZZ=            -26.8575
   XY=              0.0000   XZ=              0.0000   YZ=              0.0000

 \\#P ROCCSD(T)=(maxcyc=150, Full, SaveAmplitudes, ReadAmplitudes)/Gen
 50517\CCSD(T)=-74.1597562\RMSD=7.292e-09\PG=C*V [C*(O1Ti1)]\\@
 Normal termination of Gaussian 16 at Tue Mar 13 00:03:19 2018.
