 Gaussian 16, Revision A.03,
 Gaussian 16:  ES64L-G16RevA.03 25-Dec-2016

 ----------------------------------------------------------------------
 #P ROCCSD(T)=(maxcyc=150, Full)/Gen 5d 7f SCF=(maxcycles=300) Integral
 (NoXCTest, DKHSO) MaxDisk=500GB Pop=Regular IOp(5/15=2) Guess=Read
 ----------------------------------------------------------------------

 ---
 ScH
 ---
 Symbolic Z-matrix:
 Charge =  0 Multiplicity = 1

                         Standard orientation:
 ---------------------------------------------------------------------
 Center     Atomic      Atomic             Coordinates (Angstroms)
 Number     Number       Type             X           Y           Z
 ---------------------------------------------------------------------
      1         21           0        0.000000    0.000000    0.095455
      2          1           0        0.000000    0.000000   -2.004545
 ---------------------------------------------------------------------

 SCF Done:  E(ROHF) =  -763.819076923     A.U. after   12 cycles
 E2 =    -0.7502759907D+00 EUMP2 =    -0.76456935291358D+03
 CCSD(T)
 CCSD(T)= -0.76461163060D+03

 The electronic state is 1-SG.
 Alpha  occ. eigenvalues -- -166.95226 -19.40921 -15.83259 -15.83259 -15.82435
 Alpha  occ. eigenvalues --   -2.71433  -1.68809  -1.68809  -1.68576  -0.36973
 Alpha  occ. eigenvalues --   -0.24314
 Alpha virt. eigenvalues --    0.00930   0.00930   0.01277   0.02283   0.03593
 Alpha virt. eigenvalues --    0.03743   0.03743   0.03937   0.03937   0.04249
 Alpha virt. eigenvalues --    0.04249   0.04296   0.07099   0.07099   0.08172

 Mulliken charges and spin densities:
               1          2
     1  Sc   0.312264   0.000000
     2  H   -0.312264   0.000000
 Sum of Mulliken charges =  -0.00000   0.00000

 Dipole moment (field-independent basis, Debye):
    X=              0.0000    Y=              0.0000    Z=              2.4780  Tot=              2.4780
 Quadrupole moment (field-independent basis, Debye-Ang):
   XX=            -23.3306   YY=            -23.3306   ZZ=            -29.8838
   XY=              0.0000   XZ=              0.0000   YZ=              0.0000

 P ROCCSD(T)=(maxcyc=150, Full)/Gen 5d 7f SCF=(maxcycles=300) Integral(
 MP2-0=-764.5693529\MP4SDQ=-764.5911151\CCSD=-764.5919703\CCSD(T)=-764.
 Normal termination of Gaussian 16 at Mon Feb 12 20:15:28 2018.
