 Gaussian 16, Revision A.03,
 Gaussian 16:  ES64L-G16RevA.03 25-Dec-2016

 ----------------------------------------------------------------------
 #P ROCCSD(T)=(maxcyc=150, Full)/Gen 5d 7f SCF=(maxcycles=300) Integral
 (NoXCTest) MaxDisk=500GB Pop=Regular Pseudo=Read IOp(5/15=2) Guess=Rea
 d
 ----------------------------------------------------------------------

 ---
 ScH
 ---
 Symbolic Z-matrix:
 Charge =  0 Multiplicity = 1

                         Standard orientation:
 ---------------------------------------------------------------------
 Center     Atomic      Atomic             Coordinates (Angstroms)
 Number     Number       Type             X           Y           Z
 ---------------------------------------------------------------------
      1         21           0        0.000000    0.000000    0.063636
      2          1           0        0.000000    0.000000   -1.336364
 ---------------------------------------------------------------------

 SCF Done:  E(ROHF) =  -46.5581250727     A.U. after   12 cycles
 E2 =    -0.4131379457D+00 EUMP2 =    -0.46971263018444D+02
 CCSD(T)
 CCSD(T)= -0.47012040677D+02

 The electronic state is 1-SG.
 Alpha  occ. eigenvalues --   -2.64962  -1.63770  -1.61976  -1.61976  -0.45239
 Alpha  occ. eigenvalues --   -0.21942
 Alpha virt. eigenvalues --    0.01331   0.01331   0.01607   0.02178   0.03496
 Alpha virt. eigenvalues --    0.03913   0.03913   0.03919   0.03919   0.04839
 Alpha virt. eigenvalues --    0.04839   0.05014   0.09285   0.09902   0.09902

 Mulliken charges and spin densities:
               1          2
     1  Sc   0.450261   0.000000
     2  H   -0.450261   0.000000
 Sum of Mulliken charges =  -0.00000   0.00000

 Dipole moment (field-independent basis, Debye):
    X=              0.0000    Y=              0.0000    Z=              0.6925  Tot=              0.6925
 Quadrupole moment (field-independent basis, Debye-Ang):
   XX=            -23.5140   YY=            -23.5140   ZZ=            -23.8319
   XY=              0.0000   XZ=              0.0000   YZ=              0.0000

 P ROCCSD(T)=(maxcyc=150, Full)/Gen 5d 7f SCF=(maxcycles=300) Integral(
 MP2-0=-46.971263\MP4SDQ=-46.9949494\CCSD=-46.9943624\CCSD(T)=-47.01204
 Normal termination of Gaussian 16 at Tue Feb 13 21:59:55 2018.
