 Gaussian 16, Revision A.03,
 Gaussian 16:  ES64L-G16RevA.03 25-Dec-2016

 ----------------------------------------------------------------------
 #P ROCCSD(T)=(maxcyc=150, Full)/Gen 5d 7f SCF=(maxcycles=300) Integral
 (NoXCTest) MaxDisk=500GB Pop=Regular Pseudo=Read
 ----------------------------------------------------------------------

 ---
 MnH
 ---
 Symbolic Z-matrix:
 Charge =  0 Multiplicity = 7

                         Standard orientation:
 ---------------------------------------------------------------------
 Center     Atomic      Atomic             Coordinates (Angstroms)
 Number     Number       Type             X           Y           Z
 ---------------------------------------------------------------------
      1         25           0        0.000000    0.000000    0.080769
      2          1           0        0.000000    0.000000   -2.019231
 ---------------------------------------------------------------------

 SCF Done:  E(ROHF) =  -104.050003404     A.U. after   23 cycles
 E2 =    -0.5619129312D+00 EUMP2 =    -0.10461191633564D+03
 CCSD(T)
 CCSD(T)= -0.10463752330D+03

 The electronic state is 7-SG.
 Alpha  occ. eigenvalues --   -4.18198  -2.82954  -2.82954  -2.82671  -0.66285
 Alpha  occ. eigenvalues --   -0.66285  -0.65627  -0.65627  -0.65520  -0.38030
 Alpha  occ. eigenvalues --   -0.27267
 Alpha virt. eigenvalues --    0.00890   0.00890   0.02244   0.03165   0.05400
 Alpha virt. eigenvalues --    0.05400   0.07810   0.08337   0.08337   0.08846
 Alpha virt. eigenvalues --    0.08846   0.10519   0.13081   0.17615   0.22174

 Mulliken charges and spin densities:
               1          2
     1  Mn   0.435555   5.952531
     2  H   -0.435555   0.047469
 Sum of Mulliken charges =  -0.00000   6.00000

 Dipole moment (field-independent basis, Debye):
    X=              0.0000    Y=              0.0000    Z=              2.8012  Tot=              2.8012
 Quadrupole moment (field-independent basis, Debye-Ang):
   XX=            -16.5655   YY=            -16.5655   ZZ=            -28.7325
   XY=              0.0000   XZ=              0.0000   YZ=              0.0000

 \\#P ROCCSD(T)=(maxcyc=150, Full)/Gen 5d 7f SCF=(maxcycles=300) Integr
 163\MP4SDQ=-104.6205061\CCSD=-104.6221858\CCSD(T)=-104.6375233\RMSD=7.
 Normal termination of Gaussian 16 at Tue Feb 13 15:48:49 2018.
