 Gaussian 16, Revision A.03,
 Gaussian 16:  ES64L-G16RevA.03 25-Dec-2016

 ----------------------------------------------------------------------
 #P ROCCSD(T)=(MaxCyc=150, Full)/Gen SCF=(maxcycle=400, vshift=200) Pse
 udo=Read Integral(NoXCTest) Pop=Regular MaxDisk=500GB Guess=Read IOp(5
 /15=2)
 ----------------------------------------------------------------------

 ---
 CoH
 ---
 Symbolic Z-matrix:
 Charge =  0 Multiplicity = 3

                         Standard orientation:
 ---------------------------------------------------------------------
 Center     Atomic      Atomic             Coordinates (Angstroms)
 Number     Number       Type             X           Y           Z
 ---------------------------------------------------------------------
      1         27           0        0.000000    0.000000    0.050000
      2          1           0        0.000000    0.000000   -1.350000
 ---------------------------------------------------------------------

 SCF Done:  E(ROHF) =  -145.406131317     A.U. after   28 cycles
 E2 =    -0.9338339146D+00 EUMP2 =    -0.14633996523199D+03
 CCSD(T)
 CCSD(T)= -0.14631317937D+03

 Unable to determine electronic state:  partially filled degenerate orbitals.
 Alpha  occ. eigenvalues --   -4.58500  -2.94279  -2.94174  -2.94174  -0.49791
 Alpha  occ. eigenvalues --   -0.48980  -0.44393  -0.44393  -0.44360  -0.32569
 Alpha virt. eigenvalues --    0.00229   0.02387   0.02387   0.02649   0.04373
 Alpha virt. eigenvalues --    0.06449   0.06657   0.06667   0.06878   0.06878
 Alpha virt. eigenvalues --    0.08281   0.08281   0.08650   0.14773   0.18896

 Mulliken charges and spin densities:
               1          2
     1  Co   0.345998   1.979515
     2  H   -0.345998   0.020485
 Sum of Mulliken charges =  -0.00000   2.00000

 Dipole moment (field-independent basis, Debye):
    X=              0.0000    Y=              0.0000    Z=              4.0543  Tot=              4.0543
 Quadrupole moment (field-independent basis, Debye-Ang):
   XX=            -13.8205   YY=            -13.8205   ZZ=            -17.0104
   XY=              0.0000   XZ=              0.0000   YZ=              0.0000

 \\#P ROCCSD(T)=(MaxCyc=150, Full)/Gen SCF=(maxcycle=400, vshift=200) P
 \PMP2-0=-146.3399652\MP4SDQ=-146.3065835\CCSD=-146.2799159\CCSD(T)=-14
 Normal termination of Gaussian 16 at Sat Apr 28 23:52:26 2018.
