 Gaussian 16, Revision A.03,
 Gaussian 16:  ES64L-G16RevA.03 25-Dec-2016

 ----------------------------------------------------------------------
 #P ROCCSD(T)=(MaxCyc=150, Full)/Gen SCF=(maxcycle=400, vshift=200) Pse
 udo=Read Integral(NoXCTest) Pop=Regular MaxDisk=500GB Guess=Read IOp(5
 /15=2)
 ----------------------------------------------------------------------

 ---
 CoH
 ---
 Symbolic Z-matrix:
 Charge =  0 Multiplicity = 3

                         Standard orientation:
 ---------------------------------------------------------------------
 Center     Atomic      Atomic             Coordinates (Angstroms)
 Number     Number       Type             X           Y           Z
 ---------------------------------------------------------------------
      1         27           0        0.000000    0.000000    0.050000
      2          1           0        0.000000    0.000000   -1.350000
 ---------------------------------------------------------------------

 SCF Done:  E(ROHF) =  -145.404563316     A.U. after   49 cycles
 E2 =    -0.8726083576D+00 EUMP2 =    -0.14627717167384D+03
 CCSD(T)
 CCSD(T)= -0.14625423673D+03

 Unable to determine electronic state:  partially filled degenerate orbitals.
 Alpha  occ. eigenvalues --   -4.58500  -2.94287  -2.94183  -2.94183  -0.49793
 Alpha  occ. eigenvalues --   -0.48982  -0.44382  -0.44382  -0.44353  -0.32570
 Alpha virt. eigenvalues --    0.00330   0.02716   0.02716   0.03242   0.05315
 Alpha virt. eigenvalues --    0.09494   0.09494   0.10227   0.11374   0.11416
 Alpha virt. eigenvalues --    0.11483   0.11574   0.11574   0.18969   0.25745

 Mulliken charges and spin densities:
               1          2
     1  Co   0.345911   1.973977
     2  H   -0.345911   0.026023
 Sum of Mulliken charges =  -0.00000   2.00000

 Dipole moment (field-independent basis, Debye):
    X=              0.0000    Y=              0.0000    Z=              4.0580  Tot=              4.0580
 Quadrupole moment (field-independent basis, Debye-Ang):
   XX=            -13.8322   YY=            -13.8322   ZZ=            -17.0079
   XY=              0.0000   XZ=              0.0000   YZ=              0.0000

 \\#P ROCCSD(T)=(MaxCyc=150, Full)/Gen SCF=(maxcycle=400, vshift=200) P
 \PMP2-0=-146.2771717\MP4SDQ=-146.2507021\CCSD=-146.2231332\CCSD(T)=-14
 Normal termination of Gaussian 16 at Sun Apr 22 02:17:02 2018.
