 Gaussian 16, Revision A.03,
 Gaussian 16:  ES64L-G16RevA.03 25-Dec-2016

 ----------------------------------------------------------------------
 #P ROCCSD(T)=(MaxCyc=150, Full)/Gen SCF=(maxcycle=400, vshift=200) Pse
 udo=Read Integral(NoXCTest) Pop=Regular MaxDisk=500GB Guess=Read IOp(5
 /15=2)
 ----------------------------------------------------------------------

 ---
 CoH
 ---
 Symbolic Z-matrix:
 Charge =  0 Multiplicity = 3

                         Standard orientation:
 ---------------------------------------------------------------------
 Center     Atomic      Atomic             Coordinates (Angstroms)
 Number     Number       Type             X           Y           Z
 ---------------------------------------------------------------------
      1         27           0        0.000000    0.000000    0.050000
      2          1           0        0.000000    0.000000   -1.350000
 ---------------------------------------------------------------------

 SCF Done:  E(ROHF) =  -145.405925851     A.U. after   33 cycles
 E2 =    -0.9138171754D+00 EUMP2 =    -0.14631974302663D+03
 CCSD(T)
 CCSD(T)= -0.14629519598D+03

 Unable to determine electronic state:  partially filled degenerate orbitals.
 Alpha  occ. eigenvalues --   -4.58500  -2.94279  -2.94175  -2.94175  -0.49794
 Alpha  occ. eigenvalues --   -0.48982  -0.44387  -0.44387  -0.44356  -0.32569
 Alpha virt. eigenvalues --    0.00296   0.02467   0.02467   0.02951   0.05065
 Alpha virt. eigenvalues --    0.06993   0.07367   0.07380   0.07558   0.07558
 Alpha virt. eigenvalues --    0.08678   0.08678   0.09927   0.18957   0.20220

 Mulliken charges and spin densities:
               1          2
     1  Co   0.363290   1.991205
     2  H   -0.363290   0.008795
 Sum of Mulliken charges =  -0.00000   2.00000

 Dipole moment (field-independent basis, Debye):
    X=              0.0000    Y=              0.0000    Z=              4.0548  Tot=              4.0548
 Quadrupole moment (field-independent basis, Debye-Ang):
   XX=            -13.8211   YY=            -13.8211   ZZ=            -17.0099
   XY=              0.0000   XZ=              0.0000   YZ=              0.0000

 \\#P ROCCSD(T)=(MaxCyc=150, Full)/Gen SCF=(maxcycle=400, vshift=200) P
 PMP2-0=-146.319743\MP4SDQ=-146.2895489\CCSD=-146.2625282\CCSD(T)=-146.
 Normal termination of Gaussian 16 at Sun Apr 22 03:02:04 2018.
