 Gaussian 16, Revision A.03,
 Gaussian 16:  ES64L-G16RevA.03 25-Dec-2016

 ----------------------------------------------------------------------
 #P ROCCSD(T)=(MaxCyc=150, Full)/Gen SCF=(maxcycle=400, vshift=200) Pse
 udo=Read Integral(NoXCTest) Pop=Regular MaxDisk=500GB Guess=Read IOp(5
 /15=2)
 ----------------------------------------------------------------------

 ---
 CoO
 ---
 Symbolic Z-matrix:
 Charge =  0 Multiplicity = 4

                         Standard orientation:
 ---------------------------------------------------------------------
 Center     Atomic      Atomic             Coordinates (Angstroms)
 Number     Number       Type             X           Y           Z
 ---------------------------------------------------------------------
      1         27           0        0.000000    0.000000    0.320000
      2          8           0        0.000000    0.000000   -1.080000
 ---------------------------------------------------------------------

 SCF Done:  E(ROHF) =  -159.907180780     A.U. after   27 cycles
 E2 =    -0.1114914039D+01 EUMP2 =    -0.16102209481973D+03
 CCSD(T)
 CCSD(T)= -0.16102500710D+03

 Unable to determine electronic state:  partially filled degenerate orbitals.
 Alpha  occ. eigenvalues --   -4.85164  -3.27936  -3.25721  -3.25721  -1.26188
 Alpha  occ. eigenvalues --   -0.80080  -0.80080  -0.75424  -0.70429  -0.67797
 Alpha  occ. eigenvalues --   -0.43620  -0.43620  -0.35733
 Alpha virt. eigenvalues --   -0.02035   0.02626   0.02626   0.03303   0.03948
 Alpha virt. eigenvalues --    0.08679   0.08679   0.10299   0.11141   0.11167
 Alpha virt. eigenvalues --    0.11747   0.11747   0.14352   0.16582   0.26015

 Mulliken charges and spin densities:
               1          2
     1  Co   0.943798   2.786907
     2  O   -0.943798   0.213093
 Sum of Mulliken charges =  -0.00000   3.00000

 Dipole moment (field-independent basis, Debye):
    X=              0.0000    Y=              0.0000    Z=              5.5460  Tot=              5.5460
 Quadrupole moment (field-independent basis, Debye-Ang):
   XX=            -19.2552   YY=            -19.2552   ZZ=            -20.2266
   XY=              0.0000   XZ=              0.0000   YZ=              0.0000

 \\#P ROCCSD(T)=(MaxCyc=150, Full)/Gen SCF=(maxcycle=400, vshift=200) P
 \PMP2-0=-161.0220948\MP4SDQ=-160.9925159\CCSD=-160.9732633\CCSD(T)=-16
 Normal termination of Gaussian 16 at Thu May  3 15:17:04 2018.
