 Gaussian 16, Revision A.03,
 Gaussian 16:  ES64L-G16RevA.03 25-Dec-2016

 ----------------------------------------------------------------------
 #P ROCCSD(T)=(MaxCyc=150, Full)/Gen SCF=(maxcycle=400, vshift=200) Pse
 udo=Read Integral(NoXCTest) Pop=Regular MaxDisk=500GB Guess=Read IOp(5
 /15=2)
 ----------------------------------------------------------------------

 ---
 CoO
 ---
 Symbolic Z-matrix:
 Charge =  0 Multiplicity = 4

                         Standard orientation:
 ---------------------------------------------------------------------
 Center     Atomic      Atomic             Coordinates (Angstroms)
 Number     Number       Type             X           Y           Z
 ---------------------------------------------------------------------
      1         27           0        0.000000    0.000000    0.320000
      2          8           0        0.000000    0.000000   -1.080000
 ---------------------------------------------------------------------

 SCF Done:  E(ROHF) =  -159.910850211     A.U. after   21 cycles
 E2 =    -0.1167174627D+01 EUMP2 =    -0.16107802483804D+03
 CCSD(T)
 CCSD(T)= -0.16107845285D+03

 Unable to determine electronic state:  partially filled degenerate orbitals.
 Alpha  occ. eigenvalues --   -4.85148  -3.27909  -3.25701  -3.25701  -1.26142
 Alpha  occ. eigenvalues --   -0.80085  -0.80085  -0.75426  -0.70434  -0.67790
 Alpha  occ. eigenvalues --   -0.43632  -0.43632  -0.35715
 Alpha virt. eigenvalues --   -0.02034   0.02322   0.02322   0.03042   0.03595
 Alpha virt. eigenvalues --    0.07027   0.07027   0.07102   0.07288   0.07296
 Alpha virt. eigenvalues --    0.08956   0.08956   0.12569   0.15443   0.21686

 Mulliken charges and spin densities:
               1          2
     1  Co   0.898732   2.790102
     2  O   -0.898732   0.209898
 Sum of Mulliken charges =  -0.00000   3.00000

 Dipole moment (field-independent basis, Debye):
    X=              0.0000    Y=              0.0000    Z=              5.5339  Tot=              5.5339
 Quadrupole moment (field-independent basis, Debye-Ang):
   XX=            -19.2555   YY=            -19.2555   ZZ=            -20.2100
   XY=              0.0000   XZ=              0.0000   YZ=              0.0000

 \\#P ROCCSD(T)=(MaxCyc=150, Full)/Gen SCF=(maxcycle=400, vshift=200) P
 \PMP2-0=-161.0780248\MP4SDQ=-161.0428465\CCSD=-161.0243745\CCSD(T)=-16
 Normal termination of Gaussian 16 at Thu May  3 17:40:20 2018.
