 Gaussian 16, Revision A.03,
 Gaussian 16:  ES64L-G16RevA.03 25-Dec-2016

 ----------------------------------------------------------------------
 #P ROCCSD(T)=(MaxCyc=150, Full)/Gen SCF=(maxcycle=400) Pseudo=Read Int
 egral(NoXCTest) Pop=Regular MaxDisk=500GB
 ----------------------------------------------------------------------

 ---
 FeO
 ---
 Symbolic Z-matrix:
 Charge =  0 Multiplicity = 5

                         Standard orientation:
 ---------------------------------------------------------------------
 Center     Atomic      Atomic             Coordinates (Angstroms)
 Number     Number       Type             X           Y           Z
 ---------------------------------------------------------------------
      1         26           0        0.000000    0.000000    0.329412
      2          8           0        0.000000    0.000000   -1.070588
 ---------------------------------------------------------------------

 SCF Done:  E(ROHF) =  -138.738356778     A.U. after   36 cycles
 E2 =    -0.1056389799D+01 EUMP2 =    -0.13979474657689D+03
 CCSD(T)
 CCSD(T)= -0.13979313229D+03

 Unable to determine electronic state:  partially filled degenerate orbitals.
 Alpha  occ. eigenvalues --   -4.36422  -2.97047  -2.91772  -2.91772  -1.22706
 Alpha  occ. eigenvalues --   -0.72143  -0.72143  -0.63232  -0.58708  -0.58015
 Alpha  occ. eigenvalues --   -0.41541  -0.41541  -0.33088
 Alpha virt. eigenvalues --    0.00060   0.02326   0.02326   0.03569   0.04089
 Alpha virt. eigenvalues --    0.07658   0.07658   0.09831   0.09874   0.09903
 Alpha virt. eigenvalues --    0.10442   0.10442   0.13441   0.15817   0.25355

 Mulliken charges and spin densities:
               1          2
     1  Fe   0.904886   3.778359
     2  O   -0.904886   0.221641
 Sum of Mulliken charges =  -0.00000   4.00000

 Dipole moment (field-independent basis, Debye):
    X=              0.0000    Y=              0.0000    Z=              5.0127  Tot=              5.0127
 Quadrupole moment (field-independent basis, Debye-Ang):
   XX=            -18.9121   YY=            -18.9121   ZZ=            -21.1704
   XY=              0.0000   XZ=              0.0000   YZ=              0.0000

 \\#P ROCCSD(T)=(MaxCyc=150, Full)/Gen SCF=(maxcycle=400) Pseudo=Read I
 3784\CCSD=-139.7458244\CCSD(T)=-139.7931323\RMSD=7.997e-09\PG=C*V [C*(
 Normal termination of Gaussian 16 at Sat Mar 24 00:59:28 2018.
