 Gaussian 16, Revision A.03,
 Gaussian 16:  ES64L-G16RevA.03 25-Dec-2016

 ----------------------------------------------------------------------
 #P ROCCSD(T)=(MaxCyc=150, Full)/Gen SCF=(maxcycle=400) Pseudo=Read Int
 egral(NoXCTest) Pop=Regular MaxDisk=500GB
 ----------------------------------------------------------------------

 ---
 FeO
 ---
 Symbolic Z-matrix:
 Charge =  0 Multiplicity = 5

                         Standard orientation:
 ---------------------------------------------------------------------
 Center     Atomic      Atomic             Coordinates (Angstroms)
 Number     Number       Type             X           Y           Z
 ---------------------------------------------------------------------
      1         26           0        0.000000    0.000000    0.329412
      2          8           0        0.000000    0.000000   -1.070588
 ---------------------------------------------------------------------

 SCF Done:  E(ROHF) =  -138.741417547     A.U. after   32 cycles
 E2 =    -0.1104252422D+01 EUMP2 =    -0.13984566996924D+03
 CCSD(T)
 CCSD(T)= -0.13984167007D+03

 Unable to determine electronic state:  partially filled degenerate orbitals.
 Alpha  occ. eigenvalues --   -4.36366  -2.97002  -2.91750  -2.91750  -1.22665
 Alpha  occ. eigenvalues --   -0.72154  -0.72154  -0.63237  -0.58716  -0.58001
 Alpha  occ. eigenvalues --   -0.41560  -0.41560  -0.33066
 Alpha virt. eigenvalues --    0.00031   0.02079   0.02079   0.03312   0.03773
 Alpha virt. eigenvalues --    0.06369   0.06369   0.06627   0.06637   0.06755
 Alpha virt. eigenvalues --    0.07896   0.07896   0.12020   0.14645   0.19292

 Mulliken charges and spin densities:
               1          2
     1  Fe   1.029266   3.771863
     2  O   -1.029266   0.228137
 Sum of Mulliken charges =  -0.00000   4.00000

 Dipole moment (field-independent basis, Debye):
    X=              0.0000    Y=              0.0000    Z=              4.9953  Tot=              4.9953
 Quadrupole moment (field-independent basis, Debye-Ang):
   XX=            -18.9142   YY=            -18.9142   ZZ=            -21.1555
   XY=              0.0000   XZ=              0.0000   YZ=              0.0000

 \\#P ROCCSD(T)=(MaxCyc=150, Full)/Gen SCF=(maxcycle=400) Pseudo=Read I
 2\CCSD=-139.792184\CCSD(T)=-139.8416701\RMSD=6.040e-09\PG=C*V [C*(O1Fe
 Normal termination of Gaussian 16 at Sat Mar 24 02:52:57 2018.
