 Gaussian 16, Revision A.03,
 Gaussian 16:  ES64L-G16RevA.03 25-Dec-2016

 ----------------------------------------------------------------------
 #P ROCCSD(T)=(maxcyc=150, Full)/Gen 5d 7f SCF=(maxcycles=300) Integral
 (NoXCTest, DKHSO) MaxDisk=500GB Pop=Regular IOp(5/15=2) Guess=Read
 ----------------------------------------------------------------------

 ---
 ScH
 ---
 Symbolic Z-matrix:
 Charge =  0 Multiplicity = 1

                         Standard orientation:
 ---------------------------------------------------------------------
 Center     Atomic      Atomic             Coordinates (Angstroms)
 Number     Number       Type             X           Y           Z
 ---------------------------------------------------------------------
      1         21           0        0.000000    0.000000    0.068182
      2          1           0        0.000000    0.000000   -1.431818
 ---------------------------------------------------------------------

 SCF Done:  E(ROHF) =  -763.812957616     A.U. after   11 cycles
 E2 =    -0.7595307786D+00 EUMP2 =    -0.76457248839433D+03
 CCSD(T)
 CCSD(T)= -0.76460797877D+03

 The electronic state is 1-SG.
 Alpha  occ. eigenvalues -- -166.88156 -19.33368 -15.75716 -15.75716 -15.75006
 Alpha  occ. eigenvalues --   -2.65268  -1.63881  -1.62924  -1.62924  -0.44230
 Alpha  occ. eigenvalues --   -0.22277
 Alpha virt. eigenvalues --    0.01282   0.01282   0.01684   0.02155   0.03511
 Alpha virt. eigenvalues --    0.03898   0.03898   0.03915   0.03915   0.04742
 Alpha virt. eigenvalues --    0.04742   0.05075   0.09322   0.09527   0.09527

 Mulliken charges and spin densities:
               1          2
     1  Sc   0.422336   0.000000
     2  H   -0.422336   0.000000
 Sum of Mulliken charges =  -0.00000   0.00000

 Dipole moment (field-independent basis, Debye):
    X=              0.0000    Y=              0.0000    Z=              0.7108  Tot=              0.7108
 Quadrupole moment (field-independent basis, Debye-Ang):
   XX=            -23.7715   YY=            -23.7715   ZZ=            -25.1330
   XY=              0.0000   XZ=              0.0000   YZ=              0.0000

 P ROCCSD(T)=(maxcyc=150, Full)/Gen 5d 7f SCF=(maxcycles=300) Integral(
 P2-0=-764.5724884\MP4SDQ=-764.5900371\CCSD=-764.5897191\CCSD(T)=-764.6
 Normal termination of Gaussian 16 at Tue Feb 13 14:22:50 2018.
