 Gaussian 16, Revision A.03,
 Gaussian 16:  ES64L-G16RevA.03 25-Dec-2016

 ----------------------------------------------------------------------
 #P ROCCSD(T)=(maxcyc=150, Full)/Gen 5d 7f SCF=(maxcycles=300) Integral
 (NoXCTest, DKHSO) MaxDisk=500GB Pop=Regular IOp(5/15=2) Guess=Read
 ----------------------------------------------------------------------

 ---
 CrH
 ---
 Symbolic Z-matrix:
 Charge =  0 Multiplicity = 6

                         Standard orientation:
 ---------------------------------------------------------------------
 Center     Atomic      Atomic             Coordinates (Angstroms)
 Number     Number       Type             X           Y           Z
 ---------------------------------------------------------------------
      1         24           0        0.000000    0.000000    0.052000
      2          1           0        0.000000    0.000000   -1.248000
 ---------------------------------------------------------------------

 SCF Done:  E(ROHF) =  -1050.14867523     A.U. after   32 cycles
 E2 =    -0.9925647799D+00 EUMP2 =    -0.10511412400082D+04
 CCSD(T)
 CCSD(T)= -0.10511578262D+04

 The electronic state is 6-SG.
 Alpha  occ. eigenvalues -- -222.13119 -26.71996 -22.35440 -22.35440 -22.35345
 Alpha  occ. eigenvalues --   -3.60209  -2.35519  -2.35519  -2.33565  -0.47403
 Alpha  occ. eigenvalues --   -0.47403  -0.44929  -0.44662  -0.44662  -0.25236
 Alpha virt. eigenvalues --    0.01598   0.01598   0.01824   0.02238   0.04655
 Alpha virt. eigenvalues --    0.05440   0.05440   0.05455   0.05455   0.05739
 Alpha virt. eigenvalues --    0.05739   0.06280   0.09467   0.13040   0.16893

 Mulliken charges and spin densities:
               1          2
     1  Cr   0.357533   4.981412
     2  H   -0.357533   0.018588
 Sum of Mulliken charges =  -0.00000   5.00000

 Dipole moment (field-independent basis, Debye):
    X=             -0.0000    Y=              0.0000    Z=              1.9172  Tot=              1.9172
 Quadrupole moment (field-independent basis, Debye-Ang):
   XX=            -17.0706   YY=            -17.0706   ZZ=            -20.1262
   XY=             -0.0000   XZ=             -0.0000   YZ=              0.0000

 \\#P ROCCSD(T)=(maxcyc=150, Full)/Gen 5d 7f SCF=(maxcycles=300) Integr
 Normal termination of Gaussian 16 at Tue Feb 13 19:48:00 2018.
