 Gaussian 16, Revision A.03,
 Gaussian 16:  ES64L-G16RevA.03 25-Dec-2016

 ----------------------------------------------------------------------
 #P ROCCSD(T)=(MaxCyc=150, Full)/Gen SCF=(maxcycle=400) Pseudo=Read Int
 egral(NoXCTest) Pop=Regular MaxDisk=500GB Guess=Read IOp(5/15=2)
 ----------------------------------------------------------------------

 ---
 CuO
 ---
 Symbolic Z-matrix:
 Charge =  0 Multiplicity = 2

                         Standard orientation:
 ---------------------------------------------------------------------
 Center     Atomic      Atomic             Coordinates (Angstroms)
 Number     Number       Type             X           Y           Z
 ---------------------------------------------------------------------
      1         29           0        0.000000    0.000000    0.259459
      2          8           0        0.000000    0.000000   -0.940541
 ---------------------------------------------------------------------

 SCF Done:  E(ROHF) =  -211.836570971     A.U. after   29 cycles
 E2 =    -0.1368609054D+01 EUMP2 =    -0.21320518002497D+03
 CCSD(T)
 CCSD(T)= -0.21310872130D+03

 Unable to determine electronic state:  an orbital has unidentified symmetry.
 Alpha  occ. eigenvalues --   -5.53085  -3.84681  -3.78366  -3.74030  -1.37301
 Alpha  occ. eigenvalues --   -0.88320  -0.84770  -0.75942  -0.70933  -0.70624
 Alpha  occ. eigenvalues --   -0.50098  -0.46176  -0.35391
 Alpha virt. eigenvalues --    0.00533   0.03144   0.03280   0.03744   0.05491
 Alpha virt. eigenvalues --    0.10770   0.11249   0.13304   0.18774   0.19941
 Alpha virt. eigenvalues --    0.19946   0.20937   0.21450   0.21660   0.25664

 Mulliken charges and spin densities:
               1          2
     1  Cu   0.922789   0.451732
     2  O   -0.922789   0.548268
 Sum of Mulliken charges =  -0.00000   1.00000

 Dipole moment (field-independent basis, Debye):
    X=              0.0000    Y=              0.0000    Z=              3.3006  Tot=              3.3006
 Quadrupole moment (field-independent basis, Debye-Ang):
   XX=            -17.8512   YY=            -19.0038   ZZ=            -18.4322
   XY=              0.0000   XZ=              0.0000   YZ=              0.0000

 \\#P ROCCSD(T)=(MaxCyc=150, Full)/Gen SCF=(maxcycle=400) Pseudo=Read I
 18\MP4SDQ=-213.1278761\CCSD=-213.0565496\CCSD(T)=-213.1087213\RMSD=5.9
 Normal termination of Gaussian 16 at Mon Mar 26 10:28:29 2018.
