 Gaussian 16, Revision A.03,
 Gaussian 16:  ES64L-G16RevA.03 25-Dec-2016

 ----------------------------------------------------------------------
 #P ROCCSD(T)=(MaxCyc=150, Full)/Gen SCF=(maxcycle=400) Pseudo=Read Int
 egral(NoXCTest) Pop=Regular MaxDisk=500GB Guess=Read IOp(5/15=2)
 ----------------------------------------------------------------------

 ---
 CuO
 ---
 Symbolic Z-matrix:
 Charge =  0 Multiplicity = 2

                         Standard orientation:
 ---------------------------------------------------------------------
 Center     Atomic      Atomic             Coordinates (Angstroms)
 Number     Number       Type             X           Y           Z
 ---------------------------------------------------------------------
      1         29           0        0.000000    0.000000    0.259459
      2          8           0        0.000000    0.000000   -0.940541
 ---------------------------------------------------------------------

 SCF Done:  E(ROHF) =  -211.852763618     A.U. after   23 cycles
 E2 =    -0.1432756352D+01 EUMP2 =    -0.21328551997004D+03
 CCSD(T)
 CCSD(T)= -0.21318664214D+03

 Unable to determine electronic state:  an orbital has unidentified symmetry.
 Alpha  occ. eigenvalues --   -5.52727  -3.84377  -3.78070  -3.73775  -1.37273
 Alpha  occ. eigenvalues --   -0.88287  -0.84752  -0.75902  -0.70880  -0.70577
 Alpha  occ. eigenvalues --   -0.50130  -0.46193  -0.35335
 Alpha virt. eigenvalues --    0.00506   0.02778   0.02887   0.03399   0.05143
 Alpha virt. eigenvalues --    0.09382   0.09775   0.11954   0.13779   0.13802
 Alpha virt. eigenvalues --    0.13804   0.14015   0.14263   0.18686   0.22074

 Mulliken charges and spin densities:
               1          2
     1  Cu   0.649900   0.474766
     2  O   -0.649900   0.525234
 Sum of Mulliken charges =  -0.00000   1.00000

 Dipole moment (field-independent basis, Debye):
    X=              0.0000    Y=              0.0000    Z=              3.2797  Tot=              3.2797
 Quadrupole moment (field-independent basis, Debye-Ang):
   XX=            -17.8422   YY=            -18.9855   ZZ=            -18.4350
   XY=              0.0000   XZ=              0.0000   YZ=              0.0000

 \\#P ROCCSD(T)=(MaxCyc=150, Full)/Gen SCF=(maxcycle=400) Pseudo=Read I
 8552\MP4SDQ=-213.2019982\CCSD=-213.1318227\CCSD(T)=-213.1866421\RMSD=3
 Normal termination of Gaussian 16 at Mon Mar 26 12:47:55 2018.
