 Gaussian 16, Revision A.03,
 Gaussian 16:  ES64L-G16RevA.03 25-Dec-2016

 ----------------------------------------------------------------------
 #P ROCCSD(T)=(maxcyc=150, Full)/Gen 5d 7f SCF=(maxcycles=300, NoVarAcc
 , VShift=200) MaxDisk=100GB Pop=Regular Pseudo=Read Guess=Read IOp(5/1
 5=2)
 ----------------------------------------------------------------------

 --
 Cr
 --
 Symbolic Z-matrix:
 Charge =  0 Multiplicity = 7

                         Standard orientation:
 ---------------------------------------------------------------------
 Center     Atomic      Atomic             Coordinates (Angstroms)
 Number     Number       Type             X           Y           Z
 ---------------------------------------------------------------------
      1         24           0        0.000000    0.000000    0.000000
 ---------------------------------------------------------------------

 SCF Done:  E(ROHF) =  -86.2172473833     A.U. after   28 cycles
 E2 =    -0.5267372933D+00 EUMP2 =    -0.86743984676663D+02
 CCSD(T)
 CCSD(T)= -0.86754872187D+02

 The electronic state is 7-A1G.
 Alpha  occ. eigenvalues --   -3.59679  -2.33015  -2.33015  -2.33015  -0.36889
 Alpha  occ. eigenvalues --   -0.36889  -0.36889  -0.36889  -0.36889  -0.22569
 Alpha virt. eigenvalues --    0.01790   0.01790   0.01790   0.03174   0.06515
 Alpha virt. eigenvalues --    0.06515   0.06515   0.07931   0.07931   0.07931
 Alpha virt. eigenvalues --    0.07931   0.07931   0.21132   0.23197   0.23197

 Mulliken charges and spin densities:
               1          2
     1  Cr  -0.000000   6.000000
 Sum of Mulliken charges =  -0.00000   6.00000

 Dipole moment (field-independent basis, Debye):
    X=              0.0000    Y=              0.0000    Z=              0.0000  Tot=              0.0000
 Quadrupole moment (field-independent basis, Debye-Ang):
   XX=            -16.4815   YY=            -16.4815   ZZ=            -16.4815
   XY=              0.0000   XZ=             -0.0000   YZ=              0.0000

 1\1\GINC-C416-082\SP\ROCCSD(T)-Full\Gen\Cr1(7)\AANNABE\12-Mar-2018\0\\
 #P ROCCSD(T)=(maxcyc=150, Full)/Gen 5d 7f SCF=(maxcycles=300, NoVarAcc
 , VShift=200) MaxDisk=100GB Pop=Regular Pseudo=Read Guess=Read IOp(5/1
 5=2)\\Cr\\0,7\Cr,0,0.,0.,0.\\Version=ES64L-G16RevA.03\State=7-A1G\HF=-
 86.2172474\MP2=-86.7439847\MP3=-86.7356757\PUHF=-86.2172474\PMP2-0=-86
 .7439847\MP4SDQ=-86.739851\CCSD=-86.7387667\CCSD(T)=-86.7548722\RMSD=9
 .840e-09\PG=OH [O(Cr1)]\\@

 Normal termination of Gaussian 16 at Mon Mar 12 14:04:09 2018.
