 Gaussian 16, Revision A.03,
 Gaussian 16:  ES64L-G16RevA.03 25-Dec-2016

 ----------------------------------------------------------------------
 #P ROCCSD(T)=(maxcyc=150, Full)/Gen 5d 7f SCF=(maxcycles=300) MaxDisk=
 500GB Pop=Regular Pseudo=Read Guess=Read
 ----------------------------------------------------------------------

 -
 O
 -
 Symbolic Z-matrix:
 Charge =  0 Multiplicity = 3

                         Standard orientation:
 ---------------------------------------------------------------------
 Center     Atomic      Atomic             Coordinates (Angstroms)
 Number     Number       Type             X           Y           Z
 ---------------------------------------------------------------------
      1          8           0        0.000000    0.000000    0.000000
 ---------------------------------------------------------------------

 SCF Done:  E(ROHF) =  -15.7079648015     A.U. after   11 cycles
 E2 =    -0.1724480438D+00 EUMP2 =    -0.15880412845338D+02
 CCSD(T)
 CCSD(T)= -0.15899627615D+02

 Unable to determine electronic state:  an orbital has unidentified symmetry.
 Alpha  occ. eigenvalues --   -1.41134  -0.70296  -0.70296  -0.60639
 Alpha virt. eigenvalues --    0.13235   0.13235   0.13378   0.14001   0.46063
 Alpha virt. eigenvalues --    0.46063   0.47110   0.47110   0.47428   0.67620
 Alpha virt. eigenvalues --    0.67620   0.71023   0.84353   1.30883   1.30883

 Mulliken charges and spin densities:
               1          2
     1  O   -0.000000   2.000000
 Sum of Mulliken charges =  -0.00000   2.00000

 Dipole moment (field-independent basis, Debye):
    X=              0.0000    Y=              0.0000    Z=              0.0000  Tot=              0.0000
 Quadrupole moment (field-independent basis, Debye-Ang):
   XX=             -5.7824   YY=             -4.5454   ZZ=             -4.5454
   XY=             -0.0000   XZ=              0.0000   YZ=              0.0000

 P ROCCSD(T)=(maxcyc=150, Full)/Gen 5d 7f SCF=(maxcycles=300) MaxDisk=5
 Normal termination of Gaussian 16 at Thu Feb 22 14:24:54 2018.
