 Gaussian 16, Revision A.03,
 Gaussian 16:  ES64L-G16RevA.03 25-Dec-2016

 ----------------------------------------------------------------------
 #P ROCCSD(T)=(maxcyc=150, Full, SaveAmplitudes, ReadAmplitudes)/Gen 5d
  7f SCF=(maxcycles=300) Integral(NoXCTest) MaxDisk=500GB Pop=Regular P
 seudo=Read Guess=Read
 ----------------------------------------------------------------------

 ---
 CrO
 ---
 Symbolic Z-matrix:
 Charge =  0 Multiplicity = 5

                         Standard orientation:
 ---------------------------------------------------------------------
 Center     Atomic      Atomic             Coordinates (Angstroms)
 Number     Number       Type             X           Y           Z
 ---------------------------------------------------------------------
      1         24           0        0.000000    0.000000    0.300000
      2          8           0        0.000000    0.000000   -0.900000
 ---------------------------------------------------------------------

 SCF Done:  E(ROHF) =  -101.748538032     A.U. after   25 cycles
 E2 =    -0.9390926390D+00 EUMP2 =    -0.10268763067117D+03
 CCSD(T)
 CCSD(T)= -0.10269234301D+03

 Unable to determine electronic state:  an orbital has unidentified symmetry.
 Alpha  occ. eigenvalues --   -3.68152  -2.47232  -2.43335  -2.39519  -1.26859
 Alpha  occ. eigenvalues --   -0.74624  -0.68895  -0.65481  -0.50276  -0.50182
 Alpha  occ. eigenvalues --   -0.30311  -0.26573
 Alpha virt. eigenvalues --    0.01365   0.02083   0.02566   0.02592   0.04795
 Alpha virt. eigenvalues --    0.05032   0.05466   0.05471   0.05513   0.05602
 Alpha virt. eigenvalues --    0.08596   0.08836   0.10264   0.13861   0.14897

 Mulliken charges and spin densities:
               1          2
     1  Cr   0.815546   3.850896
     2  O   -0.815546   0.149104
 Sum of Mulliken charges =  -0.00000   4.00000

 Dipole moment (field-independent basis, Debye):
    X=              0.0000    Y=              0.0000    Z=              0.2608  Tot=              0.2608
 Quadrupole moment (field-independent basis, Debye-Ang):
   XX=            -22.7930   YY=            -19.8394   ZZ=            -22.7675
   XY=              0.0000   XZ=              0.0000   YZ=              0.0000

 \\#P ROCCSD(T)=(maxcyc=150, Full, SaveAmplitudes, ReadAmplitudes)/Gen
 2-0=-102.6876307\CCSD=-102.6507806\CCSD(T)=-102.692343\RMSD=2.145e-09\
 Normal termination of Gaussian 16 at Mon Mar 12 16:03:35 2018.
