 Gaussian 16, Revision A.03,
 Gaussian 16:  ES64L-G16RevA.03 25-Dec-2016

 ----------------------------------------------------------------------
 #P ROCCSD(T)=(MaxCyc=150, Full)/Gen SCF=(maxcycle=400) Pseudo=Read Int
 egral(NoXCTest) Pop=Regular MaxDisk=500GB Guess=Read IOp(5/15=2)
 ----------------------------------------------------------------------

 --
 Cu
 --
 Symbolic Z-matrix:
 Charge =  0 Multiplicity = 2

                         Standard orientation:
 ---------------------------------------------------------------------
 Center     Atomic      Atomic             Coordinates (Angstroms)
 Number     Number       Type             X           Y           Z
 ---------------------------------------------------------------------
      1         29           0        0.000000    0.000000    0.000000
 ---------------------------------------------------------------------

 SCF Done:  E(ROHF) =  -196.565200121     A.U. after   11 cycles
 E2 =    -0.1108781123D+01 EUMP2 =    -0.19767398124370D+03
 CCSD(T)
 CCSD(T)= -0.19759311724D+03

 The electronic state is 2-A1G.
 Alpha  occ. eigenvalues --   -5.23577  -3.50179  -3.50179  -3.50179  -0.48371
 Alpha  occ. eigenvalues --   -0.48371  -0.48371  -0.48371  -0.48371  -0.24440
 Alpha virt. eigenvalues --    0.02235   0.02235   0.02235   0.02717   0.07463
 Alpha virt. eigenvalues --    0.07463   0.07463   0.12336   0.12336   0.12336
 Alpha virt. eigenvalues --    0.12336   0.12336   0.13393   0.24218   0.24218

 Mulliken charges and spin densities:
               1          2
     1  Cu  -0.000000   1.000000
 Sum of Mulliken charges =  -0.00000   1.00000

 Dipole moment (field-independent basis, Debye):
    X=              0.0000    Y=              0.0000    Z=              0.0000  Tot=              0.0000
 Quadrupole moment (field-independent basis, Debye-Ang):
   XX=            -14.0354   YY=            -14.0354   ZZ=            -14.0354
   XY=              0.0000   XZ=              0.0000   YZ=             -0.0000

 1\1\GINC-C404-082\SP\ROCCSD(T)-Full\Gen\Cu1(2)\GWANG18\05-May-2018\0\\
 #P ROCCSD(T)=(MaxCyc=150, Full)/Gen SCF=(maxcycle=400) Pseudo=Read Int
 egral(NoXCTest) Pop=Regular MaxDisk=500GB Guess=Read IOp(5/15=2)\\Cu\\
 0,2\Cu,0,0.,0.,0.\\Version=ES64L-G16RevA.03\State=2-A1G\HF=-196.565200
 1\MP2=-197.6739812\MP3=-197.4869476\PUHF=-196.5652001\PMP2-0=-197.6739
 812\MP4SDQ=-197.617743\CCSD=-197.5575045\CCSD(T)=-197.5931172\RMSD=2.9
 00e-10\PG=OH [O(Cu1)]\\@

 Normal termination of Gaussian 16 at Sat May  5 21:55:34 2018.
