 Gaussian 16, Revision A.03,
 Gaussian 16:  ES64L-G16RevA.03 25-Dec-2016

 ----------------------------------------------------------------------
 #P ROCCSD(T)=(MaxCyc=150, Full)/Gen SCF=(maxcycle=400) Pseudo=Read Int
 egral(NoXCTest) Pop=Regular MaxDisk=500GB Guess=Read IOp(5/15=2)
 ----------------------------------------------------------------------

 --
 Cu
 --
 Symbolic Z-matrix:
 Charge =  0 Multiplicity = 2

                         Standard orientation:
 ---------------------------------------------------------------------
 Center     Atomic      Atomic             Coordinates (Angstroms)
 Number     Number       Type             X           Y           Z
 ---------------------------------------------------------------------
      1         29           0        0.000000    0.000000    0.000000
 ---------------------------------------------------------------------

 SCF Done:  E(ROHF) =  -196.562975156     A.U. after    9 cycles
 E2 =    -0.1084218239D+01 EUMP2 =    -0.19764719339524D+03
 CCSD(T)
 CCSD(T)= -0.19756827373D+03

 The electronic state is 2-A1G.
 Alpha  occ. eigenvalues --   -5.23535  -3.50191  -3.50191  -3.50191  -0.48369
 Alpha  occ. eigenvalues --   -0.48369  -0.48369  -0.48369  -0.48369  -0.24438
 Alpha virt. eigenvalues --    0.02285   0.02285   0.02285   0.03414   0.07765
 Alpha virt. eigenvalues --    0.07765   0.07765   0.13688   0.13688   0.13688
 Alpha virt. eigenvalues --    0.13688   0.13688   0.18289   0.25862   0.25862

 Mulliken charges and spin densities:
               1          2
     1  Cu  -0.000000   1.000000
 Sum of Mulliken charges =  -0.00000   1.00000

 Dipole moment (field-independent basis, Debye):
    X=              0.0000    Y=              0.0000    Z=              0.0000  Tot=              0.0000
 Quadrupole moment (field-independent basis, Debye-Ang):
   XX=            -14.0368   YY=            -14.0368   ZZ=            -14.0368
   XY=             -0.0000   XZ=             -0.0000   YZ=              0.0000

 1\1\GINC-C450-052\SP\ROCCSD(T)-Full\Gen\Cu1(2)\GWANG18\26-Mar-2018\0\\
 #P ROCCSD(T)=(MaxCyc=150, Full)/Gen SCF=(maxcycle=400) Pseudo=Read Int
 egral(NoXCTest) Pop=Regular MaxDisk=500GB Guess=Read IOp(5/15=2)\\Cu\\
 0,2\Cu,0,0.,0.,0.\\Version=ES64L-G16RevA.03\State=2-A1G\HF=-196.562975
 2\MP2=-197.6471934\MP3=-197.4623449\PUHF=-196.5629752\PMP2-0=-197.6471
 934\MP4SDQ=-197.5939895\CCSD=-197.5333689\CCSD(T)=-197.5682737\RMSD=2.
 500e-09\PG=OH [O(Cu1)]\\@

 Normal termination of Gaussian 16 at Mon Mar 26 23:30:34 2018.
