 Gaussian 16, Revision A.03,
 Gaussian 16:  ES64L-G16RevA.03 25-Dec-2016

 ----------------------------------------------------------------------
 #P ROCCSD(T)=(MaxCyc=150, Full)/Gen SCF=(maxcycle=400) Pseudo=Read Int
 egral(NoXCTest) Pop=Regular MaxDisk=500GB Guess=Read IOp(5/15=2)
 ----------------------------------------------------------------------

 --
 Cu
 --
 Symbolic Z-matrix:
 Charge =  0 Multiplicity = 2

                         Standard orientation:
 ---------------------------------------------------------------------
 Center     Atomic      Atomic             Coordinates (Angstroms)
 Number     Number       Type             X           Y           Z
 ---------------------------------------------------------------------
      1         29           0        0.000000    0.000000    0.000000
 ---------------------------------------------------------------------

 SCF Done:  E(ROHF) =  -196.549325878     A.U. after   10 cycles
 E2 =    -0.1033519187D+01 EUMP2 =    -0.19758284506501D+03
 CCSD(T)
 CCSD(T)= -0.19750457916D+03

 The electronic state is 2-A1G.
 Alpha  occ. eigenvalues --   -5.23830  -3.50374  -3.50374  -3.50374  -0.48350
 Alpha  occ. eigenvalues --   -0.48350  -0.48350  -0.48350  -0.48350  -0.24461
 Alpha virt. eigenvalues --    0.02461   0.02461   0.02461   0.03533   0.08940
 Alpha virt. eigenvalues --    0.08940   0.08940   0.18788   0.19899   0.19899
 Alpha virt. eigenvalues --    0.19899   0.19899   0.19899   0.32899   0.32899

 Mulliken charges and spin densities:
               1          2
     1  Cu  -0.000000   1.000000
 Sum of Mulliken charges =  -0.00000   1.00000

 Dipole moment (field-independent basis, Debye):
    X=              0.0000    Y=              0.0000    Z=              0.0000  Tot=              0.0000
 Quadrupole moment (field-independent basis, Debye-Ang):
   XX=            -14.0344   YY=            -14.0344   ZZ=            -14.0344
   XY=              0.0000   XZ=              0.0000   YZ=             -0.0000

 1\1\GINC-C450-052\SP\ROCCSD(T)-Full\Gen\Cu1(2)\GWANG18\26-Mar-2018\0\\
 #P ROCCSD(T)=(MaxCyc=150, Full)/Gen SCF=(maxcycle=400) Pseudo=Read Int
 egral(NoXCTest) Pop=Regular MaxDisk=500GB Guess=Read IOp(5/15=2)\\Cu\\
 0,2\Cu,0,0.,0.,0.\\Version=ES64L-G16RevA.03\State=2-A1G\HF=-196.549325
 9\MP2=-197.5828451\MP3=-197.3994244\PUHF=-196.5493259\PMP2-0=-197.5828
 451\MP4SDQ=-197.5329425\CCSD=-197.471676\CCSD(T)=-197.5045792\RMSD=4.1
 01e-09\PG=OH [O(Cu1)]\\@

 Normal termination of Gaussian 16 at Mon Mar 26 23:03:57 2018.
