 Gaussian 16, Revision A.03,
 Gaussian 16:  ES64L-G16RevA.03 25-Dec-2016

 ----------------------------------------------------------------------
 #P ROCCSD(T)=(maxcyc=150, Full)/Gen 5d 7f SCF=(maxcycles=300) Integral
 (NoXCTest) MaxDisk=500GB Pop=Regular Pseudo=Read IOp(5/15=2) Guess=Rea
 d
 ----------------------------------------------------------------------

 ---
 ScH
 ---
 Symbolic Z-matrix:
 Charge =  0 Multiplicity = 1

                         Standard orientation:
 ---------------------------------------------------------------------
 Center     Atomic      Atomic             Coordinates (Angstroms)
 Number     Number       Type             X           Y           Z
 ---------------------------------------------------------------------
      1         21           0        0.000000    0.000000    0.077273
      2          1           0        0.000000    0.000000   -1.622727
 ---------------------------------------------------------------------

 SCF Done:  E(ROHF) =  -46.7894280675     A.U. after    9 cycles
 E2 =    -0.4347017426D+00 EUMP2 =    -0.47224129810130D+02
 CCSD(T)
 CCSD(T)= -0.47264917935D+02

 The electronic state is 1-SG.
 Alpha  occ. eigenvalues --   -2.74521  -1.65247  -1.65096  -1.65096  -0.41843
 Alpha  occ. eigenvalues --   -0.22916
 Alpha virt. eigenvalues --    0.01126   0.01126   0.01514   0.01666   0.02601
 Alpha virt. eigenvalues --    0.02601   0.02649   0.02649   0.02679   0.04039
 Alpha virt. eigenvalues --    0.04060   0.04060   0.06968   0.06980   0.06980

 Mulliken charges and spin densities:
               1          2
     1  Sc   0.373990   0.000000
     2  H   -0.373990   0.000000
 Sum of Mulliken charges =   0.00000   0.00000

 Dipole moment (field-independent basis, Debye):
    X=              0.0000    Y=              0.0000    Z=              1.1376  Tot=              1.1376
 Quadrupole moment (field-independent basis, Debye-Ang):
   XX=            -23.1270   YY=            -23.1270   ZZ=            -26.2032
   XY=              0.0000   XZ=              0.0000   YZ=              0.0000

 P ROCCSD(T)=(maxcyc=150, Full)/Gen 5d 7f SCF=(maxcycles=300) Integral(
 PMP2-0=-47.2241298\MP4SDQ=-47.2453198\CCSD=-47.245295\CCSD(T)=-47.2649
 Normal termination of Gaussian 16 at Wed Feb 14 04:40:50 2018.
