 Gaussian 16, Revision A.03,
 Gaussian 16:  ES64L-G16RevA.03 25-Dec-2016

 ----------------------------------------------------------------------
 #P ROCCSD(T)=(maxcyc=150, Full, SaveAmplitudes, ReadAmplitudes)/Gen 5d
  7f SCF=(maxcycles=300) Integral(NoXCTest) MaxDisk=500GB Pop=Regular P
 seudo=Read Guess=Read IOp(5/15=2)
 ----------------------------------------------------------------------

 ---
 CrH
 ---
 Symbolic Z-matrix:
 Charge =  0 Multiplicity = 6

                         Standard orientation:
 ---------------------------------------------------------------------
 Center     Atomic      Atomic             Coordinates (Angstroms)
 Number     Number       Type             X           Y           Z
 ---------------------------------------------------------------------
      1         24           0        0.000000    0.000000    0.076000
      2          1           0        0.000000    0.000000   -1.824000
 ---------------------------------------------------------------------

 SCF Done:  E(ROHF) =  -86.8773265131     A.U. after   26 cycles
 E2 =    -0.5276674437D+00 EUMP2 =    -0.87404993956744D+02
 CCSD(T)
 CCSD(T)= -0.87456073030D+02

 The electronic state is 6-SG.
 Alpha  occ. eigenvalues --   -3.76987  -2.46914  -2.46914  -2.41960  -0.57234
 Alpha  occ. eigenvalues --   -0.57234  -0.53768  -0.53768  -0.38764  -0.26604
 Alpha virt. eigenvalues --    0.01150   0.01150   0.02244   0.02620   0.05371
 Alpha virt. eigenvalues --    0.05371   0.05589   0.07534   0.07534   0.08007
 Alpha virt. eigenvalues --    0.08007   0.09053   0.10424   0.17105   0.20689

 Mulliken charges and spin densities:
               1          2
     1  Cr   0.383562   4.977165
     2  H   -0.383562   0.022835
 Sum of Mulliken charges =  -0.00000   5.00000

 Dipole moment (field-independent basis, Debye):
    X=              0.0000    Y=              0.0000    Z=              2.6878  Tot=              2.6878
 Quadrupole moment (field-independent basis, Debye-Ang):
   XX=            -17.0722   YY=            -17.0722   ZZ=            -25.9274
   XY=              0.0000   XZ=              0.0000   YZ=              0.0000

 \\#P ROCCSD(T)=(maxcyc=150, Full, SaveAmplitudes, ReadAmplitudes)/Gen
 CCSD=-87.4403031\CCSD(T)=-87.456073\RMSD=9.972e-09\PG=C*V [C*(H1Cr1)]\
 Normal termination of Gaussian 16 at Mon Feb 26 15:35:57 2018.
