 Gaussian 16, Revision A.03,
 Gaussian 16:  ES64L-G16RevA.03 25-Dec-2016

 ----------------------------------------------------------------------
 #P ROCCSD(T)=(maxcyc=100, Full)/Gen SCF=(maxcycle=400, symm) Pseudo=Re
 ad Integral(NoXCTest) Pop=Regular MaxDisk=500GB Guess=Permute IOp(5/15
 =2)
 ----------------------------------------------------------------------

 ---
 FeH
 ---
 Symbolic Z-matrix:
 Charge =  0 Multiplicity = 4

                         Standard orientation:
 ---------------------------------------------------------------------
 Center     Atomic      Atomic             Coordinates (Angstroms)
 Number     Number       Type             X           Y           Z
 ---------------------------------------------------------------------
      1         26           0        0.000000    0.000000    0.074074
      2          1           0        0.000000    0.000000   -1.925926
 ---------------------------------------------------------------------

 SCF Done:  E(ROHF) =  -123.570967153     A.U. after   25 cycles
 E2 =    -0.7469565390D+00 EUMP2 =    -0.12431792369173D+03
 CCSD(T)
 CCSD(T)= -0.12432743147D+03

 Unable to determine electronic state:  an orbital has unidentified symmetry.
 Alpha  occ. eigenvalues --   -4.27891  -2.75975  -2.75864  -2.75864  -0.48871
 Alpha  occ. eigenvalues --   -0.48871  -0.48851  -0.43864  -0.42688  -0.30968
 Alpha virt. eigenvalues --   -0.01289   0.02284   0.02284   0.03508   0.03537
 Alpha virt. eigenvalues --    0.08307   0.08307   0.09328   0.09969   0.10011
 Alpha virt. eigenvalues --    0.10328   0.10328   0.11278   0.16667   0.21733

 Mulliken charges and spin densities:
               1          2
     1  Fe   0.431096   2.999562
     2  H   -0.431096   0.000438
 Sum of Mulliken charges =  -0.00000   3.00000

 Dipole moment (field-independent basis, Debye):
    X=              0.0000    Y=              0.0000    Z=              5.5254  Tot=              5.5254
 Quadrupole moment (field-independent basis, Debye-Ang):
   XX=            -15.1461   YY=            -15.1461   ZZ=            -20.7649
   XY=              0.0000   XZ=              0.0000   YZ=              0.0000

 \\#P ROCCSD(T)=(maxcyc=100, Full)/Gen SCF=(maxcycle=400, symm) Pseudo=
 034532\CCSD(T)=-124.3274315\RMSD=6.152e-09\PG=C*V [C*(H1Fe1)]\\@
 Normal termination of Gaussian 16 at Mon Feb 12 21:41:18 2018.
