 Gaussian 16, Revision A.03,
 Gaussian 16:  ES64L-G16RevA.03 25-Dec-2016

 ----------------------------------------------------------------------
 #P ROCCSD(T)=(maxcyc=100, Full)/Gen SCF=(maxcycle=400, symm) Pseudo=Re
 ad Integral(NoXCTest) Pop=Regular MaxDisk=500GB Guess=Permute IOp(5/15
 =2)
 ----------------------------------------------------------------------

 ---
 FeH
 ---
 Symbolic Z-matrix:
 Charge =  0 Multiplicity = 4

                         Standard orientation:
 ---------------------------------------------------------------------
 Center     Atomic      Atomic             Coordinates (Angstroms)
 Number     Number       Type             X           Y           Z
 ---------------------------------------------------------------------
      1         26           0        0.000000    0.000000    0.074074
      2          1           0        0.000000    0.000000   -1.925926
 ---------------------------------------------------------------------

 SCF Done:  E(ROHF) =  -123.572295324     A.U. after   25 cycles
 E2 =    -0.7968593434D+00 EUMP2 =    -0.12436915466725D+03
 CCSD(T)
 CCSD(T)= -0.12437476942D+03

 Unable to determine electronic state:  an orbital has unidentified symmetry.
 Alpha  occ. eigenvalues --   -4.27894  -2.75968  -2.75858  -2.75858  -0.48874
 Alpha  occ. eigenvalues --   -0.48874  -0.48855  -0.43874  -0.42703  -0.30971
 Alpha virt. eigenvalues --   -0.01307   0.01977   0.01977   0.02696   0.02981
 Alpha virt. eigenvalues --    0.05729   0.06085   0.06097   0.06375   0.06375
 Alpha virt. eigenvalues --    0.07246   0.07246   0.09072   0.12316   0.15124

 Mulliken charges and spin densities:
               1          2
     1  Fe   0.339503   2.998196
     2  H   -0.339503   0.001804
 Sum of Mulliken charges =  -0.00000   3.00000

 Dipole moment (field-independent basis, Debye):
    X=              0.0000    Y=              0.0000    Z=              5.5213  Tot=              5.5213
 Quadrupole moment (field-independent basis, Debye-Ang):
   XX=            -15.1311   YY=            -15.1311   ZZ=            -20.7820
   XY=              0.0000   XZ=              0.0000   YZ=              0.0000

 \\#P ROCCSD(T)=(maxcyc=100, Full)/Gen SCF=(maxcycle=400, symm) Pseudo=
 473237\CCSD(T)=-124.3747694\RMSD=6.264e-09\PG=C*V [C*(H1Fe1)]\\@
 Normal termination of Gaussian 16 at Tue Feb 13 00:06:12 2018.
