 Gaussian 16, Revision A.03,
 Gaussian 16:  ES64L-G16RevA.03 25-Dec-2016

 ----------------------------------------------------------------------
 #P ROCCSD(T)=(maxcyc=100, Full)/Gen SCF=(maxcycle=400, symm) Pseudo=Re
 ad Integral(NoXCTest) Pop=Regular MaxDisk=500GB Guess=Permute IOp(5/15
 =2)
 ----------------------------------------------------------------------

 ---
 FeH
 ---
 Symbolic Z-matrix:
 Charge =  0 Multiplicity = 4

                         Standard orientation:
 ---------------------------------------------------------------------
 Center     Atomic      Atomic             Coordinates (Angstroms)
 Number     Number       Type             X           Y           Z
 ---------------------------------------------------------------------
      1         26           0        0.000000    0.000000    0.074074
      2          1           0        0.000000    0.000000   -1.925926
 ---------------------------------------------------------------------

 SCF Done:  E(ROHF) =  -123.572103299     A.U. after   34 cycles
 E2 =    -0.7826452752D+00 EUMP2 =    -0.12435474857447D+03
 CCSD(T)
 CCSD(T)= -0.12436235533D+03

 Unable to determine electronic state:  an orbital has unidentified symmetry.
 Alpha  occ. eigenvalues --   -4.27895  -2.75971  -2.75861  -2.75861  -0.48876
 Alpha  occ. eigenvalues --   -0.48876  -0.48857  -0.43871  -0.42698  -0.30970
 Alpha virt. eigenvalues --   -0.01295   0.02042   0.02042   0.03227   0.03264
 Alpha virt. eigenvalues --    0.06191   0.06639   0.06654   0.06870   0.06870
 Alpha virt. eigenvalues --    0.07619   0.07619   0.10441   0.14917   0.17377

 Mulliken charges and spin densities:
               1          2
     1  Fe   0.374524   2.999023
     2  H   -0.374524   0.000977
 Sum of Mulliken charges =  -0.00000   3.00000

 Dipole moment (field-independent basis, Debye):
    X=              0.0000    Y=              0.0000    Z=              5.5213  Tot=              5.5213
 Quadrupole moment (field-independent basis, Debye-Ang):
   XX=            -15.1332   YY=            -15.1333   ZZ=            -20.7786
   XY=              0.0000   XZ=              0.0000   YZ=              0.0000

 \\#P ROCCSD(T)=(maxcyc=100, Full)/Gen SCF=(maxcycle=400, symm) Pseudo=
 58165\CCSD(T)=-124.3623553\RMSD=6.795e-09\PG=C*V [C*(H1Fe1)]\\@
 Normal termination of Gaussian 16 at Mon Feb 12 22:23:04 2018.
