 Gaussian 16, Revision A.03,
 Gaussian 16:  ES64L-G16RevA.03 25-Dec-2016

 ----------------------------------------------------------------------
 #P ROCCSD(T)=(maxcyc=150, Full, SaveAmplitudes, ReadAmplitudes)/Gen 5d
  7f SCF=(maxcycles=300, VShift=200) Integral(NoXCTest) MaxDisk=500GB P
 op=Regular Pseudo=Read Guess=Read
 ----------------------------------------------------------------------

 ---
 CrO
 ---
 Symbolic Z-matrix:
 Charge =  0 Multiplicity = 5

                         Standard orientation:
 ---------------------------------------------------------------------
 Center     Atomic      Atomic             Coordinates (Angstroms)
 Number     Number       Type             X           Y           Z
 ---------------------------------------------------------------------
      1         24           0        0.000000    0.000000    0.400000
      2          8           0        0.000000    0.000000   -1.200000
 ---------------------------------------------------------------------

 SCF Done:  E(ROHF) =  -101.795240456     A.U. after   26 cycles
 E2 =    -0.9148292816D+00 EUMP2 =    -0.10271006973786D+03
 CCSD(T)
 CCSD(T)= -0.10273462727D+03

 Unable to determine electronic state:  an orbital has unidentified symmetry.
 Alpha  occ. eigenvalues --   -3.77025  -2.52752  -2.48815  -2.45539  -1.17825
 Alpha  occ. eigenvalues --   -0.61659  -0.58194  -0.56946  -0.48044  -0.43159
 Alpha  occ. eigenvalues --   -0.38610  -0.31782
 Alpha virt. eigenvalues --   -0.00244   0.00532   0.01540   0.02655   0.03494
 Alpha virt. eigenvalues --    0.04061   0.05312   0.05312   0.05448   0.05796
 Alpha virt. eigenvalues --    0.05857   0.06317   0.10796   0.12601   0.12707

 Mulliken charges and spin densities:
               1          2
     1  Cr   1.043987   3.898832
     2  O   -1.043987   0.101168
 Sum of Mulliken charges =  -0.00000   4.00000

 Dipole moment (field-independent basis, Debye):
    X=              0.0000    Y=              0.0000    Z=              6.1232  Tot=              6.1232
 Quadrupole moment (field-independent basis, Debye-Ang):
   XX=            -20.6763   YY=            -19.5871   ZZ=            -23.9741
   XY=              0.0000   XZ=              0.0000   YZ=              0.0000

 \\#P ROCCSD(T)=(maxcyc=150, Full, SaveAmplitudes, ReadAmplitudes)/Gen
 01.7952405\PMP2-0=-102.7100697\CCSD=-102.6827988\CCSD(T)=-102.7346273\
 Normal termination of Gaussian 16 at Thu Mar 15 17:54:55 2018.
