 Gaussian 16, Revision A.03,
 Gaussian 16:  ES64L-G16RevA.03 25-Dec-2016

 ----------------------------------------------------------------------
 #P ROCCSD(T)=(maxcyc=150, Full, SaveAmplitudes, ReadAmplitudes)/Gen 5d
  7f SCF=(maxcycles=300, VShift=400) Integral(NoXCTest) MaxDisk=500GB P
 op=Full Pseudo=Read Guess=Read
 ----------------------------------------------------------------------

 ---
 ScO
 ---
 Symbolic Z-matrix:
 Charge =  0 Multiplicity = 2

                         Standard orientation:
 ---------------------------------------------------------------------
 Center     Atomic      Atomic             Coordinates (Angstroms)
 Number     Number       Type             X           Y           Z
 ---------------------------------------------------------------------
      1         21           0        0.000000    0.000000    0.441379
      2          8           0        0.000000    0.000000   -1.158621
 ---------------------------------------------------------------------

 SCF Done:  E(ROHF) =  -61.9467501006     A.U. after   47 cycles
 E2 =    -0.6787291728D+00 EUMP2 =    -0.62625479273429D+02
 CCSD(T)
 CCSD(T)= -0.62654011312D+02

 The electronic state is 2-SG.
 Alpha  occ. eigenvalues --   -2.62410  -1.67283  -1.61406  -1.61406  -1.12679
 Alpha  occ. eigenvalues --   -0.44222  -0.44222  -0.43904  -0.23928
 Alpha virt. eigenvalues --    0.00298   0.00298   0.01713   0.02281   0.03647
 Alpha virt. eigenvalues --    0.03647   0.03742   0.03742   0.04198   0.04198
 Alpha virt. eigenvalues --    0.04255   0.06023   0.08989   0.08989   0.10760

 Mulliken charges and spin densities:
               1          2
     1  Sc   1.275372   0.974898
     2  O   -1.275372   0.025102
 Sum of Mulliken charges =  -0.00000   1.00000

 Dipole moment (field-independent basis, Debye):
    X=              0.0000    Y=             -0.0000    Z=              3.8208  Tot=              3.8208
 Quadrupole moment (field-independent basis, Debye-Ang):
   XX=            -21.9019   YY=            -21.9019   ZZ=            -31.9285
   XY=              0.0000   XZ=              0.0000   YZ=              0.0000

 \\#P ROCCSD(T)=(maxcyc=150, Full, SaveAmplitudes, ReadAmplitudes)/Gen
 UHF=-61.9467501\PMP2-0=-62.6254793\CCSD=-62.6163469\CCSD(T)=-62.654011
 Normal termination of Gaussian 16 at Thu Apr 19 07:50:36 2018.
