 Gaussian 16, Revision A.03,
 Gaussian 16:  ES64L-G16RevA.03 25-Dec-2016

 ----------------------------------------------------------------------
 #P ROCCSD(T)=(maxcyc=150, Full)/Gen 5d 7f SCF=(maxcycles=300) Integral
 (NoXCTest, DKHSO) MaxDisk=500GB Pop=Regular IOp(5/15=2) Guess=Read
 ----------------------------------------------------------------------

 ---
 MnH
 ---
 Symbolic Z-matrix:
 Charge =  0 Multiplicity = 7

                         Standard orientation:
 ---------------------------------------------------------------------
 Center     Atomic      Atomic             Coordinates (Angstroms)
 Number     Number       Type             X           Y           Z
 ---------------------------------------------------------------------
      1         25           0        0.000000    0.000000    0.084615
      2          1           0        0.000000    0.000000   -2.115385
 ---------------------------------------------------------------------

 SCF Done:  E(ROHF) =  -1157.92884974     A.U. after   26 cycles
 E2 =    -0.9538928132D+00 EUMP2 =    -0.11588827425566D+04
 CCSD(T)
 CCSD(T)= -0.11588961292D+04

 The electronic state is 7-SG.
 Alpha  occ. eigenvalues -- -242.52548 -29.62716 -24.98168 -24.98168 -24.98123
 Alpha  occ. eigenvalues --   -4.11696  -2.77017  -2.77017  -2.76746  -0.66508
 Alpha  occ. eigenvalues --   -0.66508  -0.65870  -0.65870  -0.65728  -0.37404
 Alpha  occ. eigenvalues --   -0.27380
 Alpha virt. eigenvalues --    0.00792   0.00792   0.02177   0.03199   0.05332
 Alpha virt. eigenvalues --    0.05332   0.07633   0.08290   0.08290   0.08811
 Alpha virt. eigenvalues --    0.08811   0.10677   0.12830   0.17090   0.22090

 Mulliken charges and spin densities:
               1          2
     1  Mn   0.445742   5.948360
     2  H   -0.445742   0.051640
 Sum of Mulliken charges =  -0.00000   6.00000

 Dipole moment (field-independent basis, Debye):
    X=              0.0000    Y=              0.0000    Z=              3.1989  Tot=              3.1989
 Quadrupole moment (field-independent basis, Debye-Ang):
   XX=            -16.9624   YY=            -16.9624   ZZ=            -29.8087
   XY=              0.0000   XZ=              0.0000   YZ=              0.0000

 \\#P ROCCSD(T)=(maxcyc=150, Full)/Gen 5d 7f SCF=(maxcycles=300) Integr
 Normal termination of Gaussian 16 at Wed Feb 14 22:39:08 2018.
