 Gaussian 16, Revision A.03,
 Gaussian 16:  ES64L-G16RevA.03 25-Dec-2016

 ----------------------------------------------------------------------
 #P ROCCSD(T)=(maxcyc=150, Full, SaveAmplitudes, ReadAmplitudes)/Gen 5d
  7f SCF=(maxcycles=300) Integral(NoXCTest) MaxDisk=500GB Pop=Regular P
 seudo=Read Guess=Read IOp(5/15=2)
 ----------------------------------------------------------------------

 ---
 CrO
 ---
 Symbolic Z-matrix:
 Charge =  0 Multiplicity = 5

                         Standard orientation:
 ---------------------------------------------------------------------
 Center     Atomic      Atomic             Coordinates (Angstroms)
 Number     Number       Type             X           Y           Z
 ---------------------------------------------------------------------
      1         24           0        0.000000    0.000000    0.375000
      2          8           0        0.000000    0.000000   -1.125000
 ---------------------------------------------------------------------

 SCF Done:  E(ROHF) =  -102.000326356     A.U. after   29 cycles
 E2 =    -0.8811918409D+00 EUMP2 =    -0.10288151819740D+03
 CCSD(T)
 CCSD(T)= -0.10290426153D+03

 Unable to determine electronic state:  an orbital has unidentified symmetry.
 Alpha  occ. eigenvalues --   -3.78173  -2.49187  -2.45129  -2.42494  -1.21088
 Alpha  occ. eigenvalues --   -0.63598  -0.57801  -0.56339  -0.50394  -0.47872
 Alpha  occ. eigenvalues --   -0.39745  -0.30296
 Alpha virt. eigenvalues --    0.00807   0.01142   0.01920   0.03205   0.04678
 Alpha virt. eigenvalues --    0.04934   0.06352   0.07614   0.07624   0.08026
 Alpha virt. eigenvalues --    0.08454   0.08548   0.12863   0.14553   0.16730

 Mulliken charges and spin densities:
               1          2
     1  Cr   1.026169   3.831033
     2  O   -1.026169   0.168967
 Sum of Mulliken charges =  -0.00000   4.00000

 Dipole moment (field-independent basis, Debye):
    X=              0.0000    Y=              0.0000    Z=              4.5498  Tot=              4.5498
 Quadrupole moment (field-independent basis, Debye-Ang):
   XX=            -20.7102   YY=            -19.6172   ZZ=            -24.2807
   XY=              0.0000   XZ=              0.0000   YZ=              0.0000

 \\#P ROCCSD(T)=(maxcyc=150, Full, SaveAmplitudes, ReadAmplitudes)/Gen
 SD=-102.856225\CCSD(T)=-102.9042615\RMSD=5.685e-09\PG=C*V [C*(O1Cr1)]\
 Normal termination of Gaussian 16 at Tue Mar 13 04:12:37 2018.
