 Gaussian 16, Revision A.03,
 Gaussian 16:  ES64L-G16RevA.03 25-Dec-2016

 ----------------------------------------------------------------------
 #P ROCCSD(T)=(MaxCyc=150, Full)/Gen SCF=(maxcycle=400) Pseudo=Read Int
 egral(NoXCTest) Pop=Regular MaxDisk=500GB Guess=Read IOp(5/15=2)
 ----------------------------------------------------------------------

 ---
 ZnO
 ---
 Symbolic Z-matrix:
 Charge =  0 Multiplicity = 1

                         Standard orientation:
 ---------------------------------------------------------------------
 Center     Atomic      Atomic             Coordinates (Angstroms)
 Number     Number       Type             X           Y           Z
 ---------------------------------------------------------------------
      1         30           0        0.000000    0.000000    0.421053
      2          8           0        0.000000    0.000000   -1.578947
 ---------------------------------------------------------------------

 SCF Done:  E(ROHF) =  -241.238040790     A.U. after   11 cycles
 E2 =    -0.1354577351D+01 EUMP2 =    -0.24259261814172D+03
 CCSD(T)
 CCSD(T)= -0.24256012395D+03

 The electronic state is 1-SG.
 Alpha  occ. eigenvalues --   -5.90309  -4.01983  -4.01983  -4.01915  -1.17019
 Alpha  occ. eigenvalues --   -0.81780  -0.81780  -0.81712  -0.81712  -0.80985
 Alpha  occ. eigenvalues --   -0.44424  -0.44424  -0.34819
 Alpha virt. eigenvalues --   -0.04017   0.02255   0.02255   0.02574   0.04020
 Alpha virt. eigenvalues --    0.07308   0.07308   0.11616   0.16509   0.16777
 Alpha virt. eigenvalues --    0.17887   0.17887   0.19403   0.19403   0.23237

 Mulliken charges and spin densities:
               1          2
     1  Zn   0.656697   0.000000
     2  O   -0.656697   0.000000
 Sum of Mulliken charges =  -0.00000   0.00000

 Dipole moment (field-independent basis, Debye):
    X=              0.0000    Y=              0.0000    Z=              5.6306  Tot=              5.6306
 Quadrupole moment (field-independent basis, Debye-Ang):
   XX=            -18.7879   YY=            -18.7879   ZZ=            -22.0442
   XY=              0.0000   XZ=              0.0000   YZ=              0.0000

 P ROCCSD(T)=(MaxCyc=150, Full)/Gen SCF=(maxcycle=400) Pseudo=Read Inte
 -0=-242.5926181\MP4SDQ=-242.5395041\CCSD=-242.5100418\CCSD(T)=-242.560
 Normal termination of Gaussian 16 at Fri May  4 14:44:48 2018.
