 Gaussian 16, Revision A.03,
 Gaussian 16:  ES64L-G16RevA.03 25-Dec-2016

 ----------------------------------------------------------------------
 #P ROCCSD(T)=(MaxCyc=150, Full)/Gen SCF=(maxcycle=400) Pseudo=Read Int
 egral(NoXCTest) Pop=Regular MaxDisk=500GB Guess=Read IOp(5/15=2)
 ----------------------------------------------------------------------

 ---
 ZnO
 ---
 Symbolic Z-matrix:
 Charge =  0 Multiplicity = 1

                         Standard orientation:
 ---------------------------------------------------------------------
 Center     Atomic      Atomic             Coordinates (Angstroms)
 Number     Number       Type             X           Y           Z
 ---------------------------------------------------------------------
      1         30           0        0.000000    0.000000    0.421053
      2          8           0        0.000000    0.000000   -1.578947
 ---------------------------------------------------------------------

 SCF Done:  E(ROHF) =  -241.235288901     A.U. after   12 cycles
 E2 =    -0.1287445291D+01 EUMP2 =    -0.24252273419174D+03
 CCSD(T)
 CCSD(T)= -0.24249261240D+03

 The electronic state is 1-SG.
 Alpha  occ. eigenvalues --   -5.90329  -4.02006  -4.02006  -4.01943  -1.17055
 Alpha  occ. eigenvalues --   -0.81797  -0.81797  -0.81725  -0.81725  -0.81005
 Alpha  occ. eigenvalues --   -0.44405  -0.44405  -0.34839
 Alpha virt. eigenvalues --   -0.04033   0.02444   0.02444   0.02816   0.04447
 Alpha virt. eigenvalues --    0.08332   0.08332   0.13060   0.17350   0.21190
 Alpha virt. eigenvalues --    0.22411   0.22411   0.24785   0.24785   0.30055

 Mulliken charges and spin densities:
               1          2
     1  Zn   0.686398   0.000000
     2  O   -0.686398   0.000000
 Sum of Mulliken charges =  -0.00000   0.00000

 Dipole moment (field-independent basis, Debye):
    X=              0.0000    Y=              0.0000    Z=              5.6444  Tot=              5.6444
 Quadrupole moment (field-independent basis, Debye-Ang):
   XX=            -18.7999   YY=            -18.7999   ZZ=            -22.0414
   XY=              0.0000   XZ=              0.0000   YZ=              0.0000

 P ROCCSD(T)=(MaxCyc=150, Full)/Gen SCF=(maxcycle=400) Pseudo=Read Inte
 -0=-242.5227342\MP4SDQ=-242.4748167\CCSD=-242.4450701\CCSD(T)=-242.492
 Normal termination of Gaussian 16 at Fri May  4 12:24:49 2018.
