 Gaussian 16, Revision A.03,
 Gaussian 16:  ES64L-G16RevA.03 25-Dec-2016

 ----------------------------------------------------------------------
 #P ROCCSD(T)=(maxcyc=150, Full, SaveAmplitudes, ReadAmplitudes)/Gen 5d
  7f SCF=(maxcycles=300) Integral(NoXCTest) MaxDisk=500GB Pop=Regular P
 seudo=Read Guess=Read
 ----------------------------------------------------------------------

 ---
 CrO
 ---
 Symbolic Z-matrix:
 Charge =  0 Multiplicity = 5

                         Standard orientation:
 ---------------------------------------------------------------------
 Center     Atomic      Atomic             Coordinates (Angstroms)
 Number     Number       Type             X           Y           Z
 ---------------------------------------------------------------------
      1         24           0        0.000000    0.000000    0.300000
      2          8           0        0.000000    0.000000   -0.900000
 ---------------------------------------------------------------------

 SCF Done:  E(ROHF) =  -101.752659073     A.U. after   22 cycles
 E2 =    -0.9277324937D+00 EUMP2 =    -0.10268039156699D+03
 CCSD(T)
 CCSD(T)= -0.10268411914D+03

 Unable to determine electronic state:  an orbital has unidentified symmetry.
 Alpha  occ. eigenvalues --   -3.75260  -2.48624  -2.44043  -2.40198  -1.26272
 Alpha  occ. eigenvalues --   -0.74729  -0.68504  -0.65130  -0.50492  -0.50391
 Alpha  occ. eigenvalues --   -0.30495  -0.26432
 Alpha virt. eigenvalues --    0.01435   0.02085   0.02564   0.02567   0.04900
 Alpha virt. eigenvalues --    0.05048   0.05466   0.05471   0.05512   0.05625
 Alpha virt. eigenvalues --    0.08693   0.08699   0.10250   0.13983   0.15046

 Mulliken charges and spin densities:
               1          2
     1  Cr   0.748552   3.831206
     2  O   -0.748552   0.168794
 Sum of Mulliken charges =  -0.00000   4.00000

 Dipole moment (field-independent basis, Debye):
    X=              0.0000    Y=              0.0000    Z=              0.3571  Tot=              0.3571
 Quadrupole moment (field-independent basis, Debye-Ang):
   XX=            -22.5872   YY=            -19.8218   ZZ=            -22.6944
   XY=              0.0000   XZ=              0.0000   YZ=              0.0000

 \\#P ROCCSD(T)=(maxcyc=150, Full, SaveAmplitudes, ReadAmplitudes)/Gen
 MP2-0=-102.6803916\CCSD=-102.6429084\CCSD(T)=-102.6841191\RMSD=6.291e-
 Normal termination of Gaussian 16 at Mon Mar 12 16:03:36 2018.
