 Gaussian 16, Revision A.03,
 Gaussian 16:  ES64L-G16RevA.03 25-Dec-2016

 ----------------------------------------------------------------------
 #P ROCCSD(T)=(maxcyc=150, FrzINGC)/Gen 5d 7f SCF=(maxcycles=300) Integ
 ral(NoXCTest, DKHSO) MaxDisk=500GB Pop=Regular IOp(5/15=2) Guess=Read
 ----------------------------------------------------------------------

 ---
 ScH
 ---
 Symbolic Z-matrix:
 Charge =  0 Multiplicity = 1

                         Standard orientation:
 ---------------------------------------------------------------------
 Center     Atomic      Atomic             Coordinates (Angstroms)
 Number     Number       Type             X           Y           Z
 ---------------------------------------------------------------------
      1         21           0        0.000000    0.000000    0.063636
      2          1           0        0.000000    0.000000   -1.336364
 ---------------------------------------------------------------------

 SCF Done:  E(ROHF) =  -763.792778560     A.U. after   11 cycles
 E2 =    -0.4020500288D+00 EUMP2 =    -0.76419482858929D+03
 CCSD(T)
 CCSD(T)= -0.76423301836D+03

 The electronic state is 1-SG.
 Alpha  occ. eigenvalues -- -166.86480 -19.31457 -15.73818 -15.73818 -15.73128
 Alpha  occ. eigenvalues --   -2.63878  -1.63251  -1.61538  -1.61538  -0.45300
 Alpha  occ. eigenvalues --   -0.21972
 Alpha virt. eigenvalues --    0.01263   0.01263   0.01552   0.01908   0.02888
 Alpha virt. eigenvalues --    0.02888   0.02894   0.02894   0.02907   0.04344
 Alpha virt. eigenvalues --    0.04344   0.04492   0.07865   0.08061   0.08061

 Mulliken charges and spin densities:
               1          2
     1  Sc   0.282629   0.000000
     2  H   -0.282629   0.000000
 Sum of Mulliken charges =  -0.00000   0.00000

 Dipole moment (field-independent basis, Debye):
    X=              0.0000    Y=              0.0000    Z=              0.6053  Tot=              0.6053
 Quadrupole moment (field-independent basis, Debye-Ang):
   XX=            -23.8906   YY=            -23.8906   ZZ=            -24.3806
   XY=              0.0000   XZ=              0.0000   YZ=              0.0000

  ROCCSD(T)=(maxcyc=150, FrzINGC)/Gen 5d 7f SCF=(maxcycles=300) Integra
 PMP2-0=-764.1948286\MP4SDQ=-764.216233\CCSD=-764.2161674\CCSD(T)=-764.
 Normal termination of Gaussian 16 at Tue Feb 13 19:09:18 2018.
