 Gaussian 16, Revision A.03,
 Gaussian 16:  ES64L-G16RevA.03 25-Dec-2016

 ----------------------------------------------------------------------
 #P ROCCSD(T)=(maxcyc=150, Full, SaveAmplitudes, ReadAmplitudes)/Gen 5d
  7f SCF=(maxcycles=300) Integral(NoXCTest) MaxDisk=500GB Pop=Regular P
 seudo=Read Guess=Read
 ----------------------------------------------------------------------

 ---
 CrO
 ---
 Symbolic Z-matrix:
 Charge =  0 Multiplicity = 5

                         Standard orientation:
 ---------------------------------------------------------------------
 Center     Atomic      Atomic             Coordinates (Angstroms)
 Number     Number       Type             X           Y           Z
 ---------------------------------------------------------------------
      1         24           0        0.000000    0.000000    0.450000
      2          8           0        0.000000    0.000000   -1.350000
 ---------------------------------------------------------------------

 SCF Done:  E(ROHF) =  -101.991754526     A.U. after  274 cycles
 E2 =    -0.9027025271D+00 EUMP2 =    -0.10289445705360D+03
 CCSD(T)
 CCSD(T)= -0.10294629458D+03

 Unable to determine electronic state:  an orbital has unidentified symmetry.
 Alpha  occ. eigenvalues --   -3.69227  -2.47526  -2.42511  -2.41776  -1.09627
 Alpha  occ. eigenvalues --   -0.57138  -0.55498  -0.54879  -0.51791  -0.34055
 Alpha  occ. eigenvalues --   -0.32761  -0.32662
 Alpha virt. eigenvalues --   -0.04812   0.00568   0.01157   0.01289   0.03094
 Alpha virt. eigenvalues --    0.04426   0.05189   0.05189   0.05574   0.06084
 Alpha virt. eigenvalues --    0.06157   0.06503   0.10550   0.11253   0.13087

 Mulliken charges and spin densities:
               1          2
     1  Cr   1.131034   3.947384
     2  O   -1.131034   0.052616
 Sum of Mulliken charges =  -0.00000   4.00000

 Dipole moment (field-independent basis, Debye):
    X=              0.0000    Y=              0.0000    Z=              9.8471  Tot=              9.8471
 Quadrupole moment (field-independent basis, Debye-Ang):
   XX=            -19.5552   YY=            -18.6993   ZZ=            -23.9295
   XY=              0.0000   XZ=              0.0000   YZ=              0.0000

 \\#P ROCCSD(T)=(maxcyc=150, Full, SaveAmplitudes, ReadAmplitudes)/Gen
 72\CCSD(T)=-102.9462946\RMSD=6.419e-09\PG=C*V [C*(O1Cr1)]\\@
 Normal termination of Gaussian 16 at Mon Mar 12 16:12:31 2018.
