 Gaussian 16, Revision A.03,
 Gaussian 16:  ES64L-G16RevA.03 25-Dec-2016

 ----------------------------------------------------------------------
 #P ROCCSD(T)=(MaxCyc=150, Full)/Gen SCF=(maxcycle=400) Pseudo=Read Int
 egral(NoXCTest) Pop=Regular MaxDisk=500GB Guess=Read IOp(5/15=2)
 ----------------------------------------------------------------------

 ---
 NiO
 ---
 Symbolic Z-matrix:
 Charge =  0 Multiplicity = 3

                         Standard orientation:
 ---------------------------------------------------------------------
 Center     Atomic      Atomic             Coordinates (Angstroms)
 Number     Number       Type             X           Y           Z
 ---------------------------------------------------------------------
      1         28           0        0.000000    0.000000    0.377778
      2          8           0        0.000000    0.000000   -1.322222
 ---------------------------------------------------------------------

 SCF Done:  E(ROHF) =  -184.714961545     A.U. after   20 cycles
 E2 =    -0.1168273943D+01 EUMP2 =    -0.18588323548818D+03
 CCSD(T)
 CCSD(T)= -0.18591291510D+03

 The electronic state is 3-SG.
 Alpha  occ. eigenvalues --   -5.23270  -3.51926  -3.43636  -3.43636  -1.15412
 Alpha  occ. eigenvalues --   -0.80743  -0.80743  -0.74617  -0.71918  -0.71918
 Alpha  occ. eigenvalues --   -0.37997  -0.37997  -0.36794
 Alpha virt. eigenvalues --   -0.05677   0.02090   0.02115   0.02115   0.04308
 Alpha virt. eigenvalues --    0.07806   0.07806   0.10548   0.12052   0.12052
 Alpha virt. eigenvalues --    0.13181   0.13181   0.15281   0.16058   0.26268

 Mulliken charges and spin densities:
               1          2
     1  Ni   1.068272   1.924979
     2  O   -1.068272   0.075021
 Sum of Mulliken charges =   0.00000   2.00000

 Dipole moment (field-independent basis, Debye):
    X=              0.0000    Y=              0.0000    Z=              8.2165  Tot=              8.2165
 Quadrupole moment (field-independent basis, Debye-Ang):
   XX=            -18.5713   YY=            -18.5713   ZZ=            -21.7758
   XY=              0.0000   XZ=              0.0000   YZ=              0.0000

 \\#P ROCCSD(T)=(MaxCyc=150, Full)/Gen SCF=(maxcycle=400) Pseudo=Read I
 PMP2-0=-185.8832355\MP4SDQ=-185.8559298\CCSD=-185.8477555\CCSD(T)=-185
 Normal termination of Gaussian 16 at Mon Mar 26 18:18:29 2018.
