 Gaussian 16, Revision A.03,
 Gaussian 16:  ES64L-G16RevA.03 25-Dec-2016

 ----------------------------------------------------------------------
 #P ROCCSD(T)=(MaxCyc=150, Full)/Gen SCF=(maxcycle=400, vshift=200) Pse
 udo=Read Integral(NoXCTest) Pop=Regular MaxDisk=500GB Guess=Read
 ----------------------------------------------------------------------

 ---
 NiO
 ---
 Symbolic Z-matrix:
 Charge =  0 Multiplicity = 3

                         Standard orientation:
 ---------------------------------------------------------------------
 Center     Atomic      Atomic             Coordinates (Angstroms)
 Number     Number       Type             X           Y           Z
 ---------------------------------------------------------------------
      1         28           0        0.000000    0.000000    0.377778
      2          8           0        0.000000    0.000000   -1.322222
 ---------------------------------------------------------------------

 SCF Done:  E(ROHF) =  -184.049879748     A.U. after   24 cycles
 E2 =    -0.1157325353D+01 EUMP2 =    -0.18520720510093D+03
 CCSD(T)
 CCSD(T)= -0.18523791637D+03

 The electronic state is 3-SG.
 Alpha  occ. eigenvalues --   -5.19771  -3.51363  -3.43081  -3.43081  -1.15491
 Alpha  occ. eigenvalues --   -0.80695  -0.80695  -0.74539  -0.71872  -0.71872
 Alpha  occ. eigenvalues --   -0.38115  -0.38115  -0.36709
 Alpha virt. eigenvalues --   -0.05564   0.02121   0.02127   0.02127   0.04303
 Alpha virt. eigenvalues --    0.07840   0.07840   0.10565   0.12055   0.12055
 Alpha virt. eigenvalues --    0.13187   0.13187   0.15297   0.16083   0.26248

 Mulliken charges and spin densities:
               1          2
     1  Ni   1.066153   1.924966
     2  O   -1.066153   0.075034
 Sum of Mulliken charges =  -0.00000   2.00000

 Dipole moment (field-independent basis, Debye):
    X=              0.0000    Y=              0.0000    Z=              8.1663  Tot=              8.1663
 Quadrupole moment (field-independent basis, Debye-Ang):
   XX=            -18.6253   YY=            -18.6253   ZZ=            -21.8346
   XY=              0.0000   XZ=              0.0000   YZ=              0.0000

 \\#P ROCCSD(T)=(MaxCyc=150, Full)/Gen SCF=(maxcycle=400, vshift=200) P
 PMP2-0=-185.2072051\MP4SDQ=-185.1803289\CCSD=-185.1730695\CCSD(T)=-185
 Normal termination of Gaussian 16 at Fri May 11 03:34:00 2018.
