 Gaussian 16, Revision A.03,
 Gaussian 16:  ES64L-G16RevA.03 25-Dec-2016

 ----------------------------------------------------------------------
 #P ROCCSD(T)=(MaxCyc=150, Full)/Gen SCF=(maxcycle=400, vshift=200) Pse
 udo=Read Integral(NoXCTest) Pop=Regular MaxDisk=500GB Guess=Read
 ----------------------------------------------------------------------

 ---
 NiO
 ---
 Symbolic Z-matrix:
 Charge =  0 Multiplicity = 3

                         Standard orientation:
 ---------------------------------------------------------------------
 Center     Atomic      Atomic             Coordinates (Angstroms)
 Number     Number       Type             X           Y           Z
 ---------------------------------------------------------------------
      1         28           0        0.000000    0.000000    0.377778
      2          8           0        0.000000    0.000000   -1.322222
 ---------------------------------------------------------------------

 SCF Done:  E(ROHF) =  -184.053524554     A.U. after   22 cycles
 E2 =    -0.1214544224D+01 EUMP2 =    -0.18526806877861D+03
 CCSD(T)
 CCSD(T)= -0.18529680251D+03

 The electronic state is 3-SG.
 Alpha  occ. eigenvalues --   -5.19765  -3.51341  -3.43065  -3.43065  -1.15450
 Alpha  occ. eigenvalues --   -0.80691  -0.80691  -0.74533  -0.71872  -0.71872
 Alpha  occ. eigenvalues --   -0.38124  -0.38124  -0.36695
 Alpha virt. eigenvalues --   -0.05551   0.01772   0.01772   0.01854   0.03883
 Alpha virt. eigenvalues --    0.06750   0.06750   0.07585   0.07958   0.07958
 Alpha virt. eigenvalues --    0.09010   0.09010   0.12664   0.14909   0.21755

 Mulliken charges and spin densities:
               1          2
     1  Ni   0.991369   1.925567
     2  O   -0.991369   0.074433
 Sum of Mulliken charges =  -0.00000   2.00000

 Dipole moment (field-independent basis, Debye):
    X=              0.0000    Y=              0.0000    Z=              8.1506  Tot=              8.1506
 Quadrupole moment (field-independent basis, Debye-Ang):
   XX=            -18.6167   YY=            -18.6167   ZZ=            -21.8183
   XY=              0.0000   XZ=              0.0000   YZ=              0.0000

 \\#P ROCCSD(T)=(MaxCyc=150, Full)/Gen SCF=(maxcycle=400, vshift=200) P
 PMP2-0=-185.2680688\MP4SDQ=-185.2353119\CCSD=-185.2292178\CCSD(T)=-185
 Normal termination of Gaussian 16 at Fri May 11 04:40:08 2018.
