 Gaussian 16, Revision A.03,
 Gaussian 16:  ES64L-G16RevA.03 25-Dec-2016

 ----------------------------------------------------------------------
 #P ROCCSD(T)=(MaxCyc=150, Full)/Gen SCF=(maxcycle=400) Pseudo=Read Int
 egral(NoXCTest) Pop=Regular MaxDisk=500GB Guess=Read IOp(5/15=2)
 ----------------------------------------------------------------------

 ---
 NiO
 ---
 Symbolic Z-matrix:
 Charge =  0 Multiplicity = 3

                         Standard orientation:
 ---------------------------------------------------------------------
 Center     Atomic      Atomic             Coordinates (Angstroms)
 Number     Number       Type             X           Y           Z
 ---------------------------------------------------------------------
      1         28           0        0.000000    0.000000    0.377778
      2          8           0        0.000000    0.000000   -1.322222
 ---------------------------------------------------------------------

 SCF Done:  E(ROHF) =  -184.718673142     A.U. after   20 cycles
 E2 =    -0.1225445459D+01 EUMP2 =    -0.18594411860159D+03
 CCSD(T)
 CCSD(T)= -0.18597175113D+03

 The electronic state is 3-SG.
 Alpha  occ. eigenvalues --   -5.23266  -3.51899  -3.43615  -3.43615  -1.15371
 Alpha  occ. eigenvalues --   -0.80739  -0.80739  -0.74611  -0.71918  -0.71918
 Alpha  occ. eigenvalues --   -0.38007  -0.38007  -0.36780
 Alpha virt. eigenvalues --   -0.05664   0.01760   0.01760   0.01824   0.03884
 Alpha virt. eigenvalues --    0.06727   0.06727   0.07579   0.07956   0.07956
 Alpha virt. eigenvalues --    0.09003   0.09003   0.12658   0.14869   0.21666

 Mulliken charges and spin densities:
               1          2
     1  Ni   0.992718   1.925620
     2  O   -0.992718   0.074380
 Sum of Mulliken charges =  -0.00000   2.00000

 Dipole moment (field-independent basis, Debye):
    X=              0.0000    Y=              0.0000    Z=              8.2008  Tot=              8.2008
 Quadrupole moment (field-independent basis, Debye-Ang):
   XX=            -18.5627   YY=            -18.5627   ZZ=            -21.7592
   XY=              0.0000   XZ=              0.0000   YZ=              0.0000

 \\#P ROCCSD(T)=(MaxCyc=150, Full)/Gen SCF=(maxcycle=400) Pseudo=Read I
 PMP2-0=-185.9441186\MP4SDQ=-185.9108477\CCSD=-185.9038503\CCSD(T)=-185
 Normal termination of Gaussian 16 at Mon Mar 26 20:42:11 2018.
