 Gaussian 16, Revision A.03,
 Gaussian 16:  ES64L-G16RevA.03 25-Dec-2016

 ----------------------------------------------------------------------
 #P ROCCSD(T)=(maxcyc=150, Full, SaveAmplitudes, ReadAmplitudes)/Gen 5d
  7f SCF=(maxcycles=300) Integral(NoXCTest) MaxDisk=500GB Pop=Regular P
 seudo=Read Guess=Read
 ----------------------------------------------------------------------

 ---
 CrO
 ---
 Symbolic Z-matrix:
 Charge =  0 Multiplicity = 5

                         Standard orientation:
 ---------------------------------------------------------------------
 Center     Atomic      Atomic             Coordinates (Angstroms)
 Number     Number       Type             X           Y           Z
 ---------------------------------------------------------------------
      1         24           0        0.000000    0.000000    0.475000
      2          8           0        0.000000    0.000000   -1.425000
 ---------------------------------------------------------------------

 SCF Done:  E(ROHF) =  -101.980945264     A.U. after   70 cycles
 E2 =    -0.8872465847D+00 EUMP2 =    -0.10286819184919D+03
 CCSD(T)
 CCSD(T)= -0.10292179065D+03

 Unable to determine electronic state:  an orbital has unidentified symmetry.
 Alpha  occ. eigenvalues --   -3.78332  -2.50198  -2.45091  -2.44360  -1.08832
 Alpha  occ. eigenvalues --   -0.59438  -0.57158  -0.56944  -0.54222  -0.33612
 Alpha  occ. eigenvalues --   -0.33088  -0.31929
 Alpha virt. eigenvalues --   -0.05166   0.00484   0.01029   0.01176   0.03069
 Alpha virt. eigenvalues --    0.04329   0.05148   0.05148   0.05431   0.06099
 Alpha virt. eigenvalues --    0.06156   0.06355   0.10172   0.11223   0.12192

 Mulliken charges and spin densities:
               1          2
     1  Cr   1.079587   3.966104
     2  O   -1.079587   0.033896
 Sum of Mulliken charges =  -0.00000   4.00000

 Dipole moment (field-independent basis, Debye):
    X=              0.0000    Y=              0.0000    Z=             10.0278  Tot=             10.0278
 Quadrupole moment (field-independent basis, Debye-Ang):
   XX=            -19.6865   YY=            -19.0190   ZZ=            -24.8622
   XY=              0.0000   XZ=              0.0000   YZ=              0.0000

 \\#P ROCCSD(T)=(maxcyc=150, Full, SaveAmplitudes, ReadAmplitudes)/Gen
 342\CCSD(T)=-102.9217907\RMSD=5.860e-09\PG=C*V [C*(O1Cr1)]\\@
 Normal termination of Gaussian 16 at Tue Mar 13 08:40:19 2018.
