 Gaussian 16, Revision A.03,
 Gaussian 16:  ES64L-G16RevA.03 25-Dec-2016

 ----------------------------------------------------------------------
 #P ROCCSD(T)=(MaxCyc=150, FrzINGC)/Gen SCF=(maxcycle=400, vshift=200)
 Integral(DKHSO, NoXCTest) Pop=Regular MaxDisk=500GB Guess=Read IOp(5/1
 5=2)
 ----------------------------------------------------------------------

 ---
 FeH
 ---
 Symbolic Z-matrix:
 Charge =  0 Multiplicity = 4

                         Standard orientation:
 ---------------------------------------------------------------------
 Center     Atomic      Atomic             Coordinates (Angstroms)
 Number     Number       Type             X           Y           Z
 ---------------------------------------------------------------------
      1         26           0        0.000000    0.000000    0.044444
      2          1           0        0.000000    0.000000   -1.155556
 ---------------------------------------------------------------------

 SCF Done:  E(ROHF) =  -1271.76879734     A.U. after   28 cycles
 E2 =    -0.8143071133D+00 EUMP2 =    -0.12725831044536D+04
 CCSD(T)
 CCSD(T)= -0.12725645275D+04

 Unable to determine electronic state:  partially filled degenerate orbitals.
 Alpha  occ. eigenvalues -- -263.57797 -32.36269 -27.43273 -27.42693 -27.42693
 Alpha  occ. eigenvalues --   -4.26090  -2.82124  -2.79516  -2.79516  -0.55417
 Alpha  occ. eigenvalues --   -0.55417  -0.54935  -0.52858  -0.47971  -0.30422
 Alpha virt. eigenvalues --    0.00415   0.02191   0.02191   0.02320   0.03962
 Alpha virt. eigenvalues --    0.05931   0.06255   0.06255   0.06285   0.06294
 Alpha virt. eigenvalues --    0.07120   0.07120   0.08101   0.12927   0.17444

 Mulliken charges and spin densities:
               1          2
     1  Fe   0.302772   2.989206
     2  H   -0.302772   0.010794
 Sum of Mulliken charges =  -0.00000   3.00000

 Dipole moment (field-independent basis, Debye):
    X=              0.0000    Y=              0.0000    Z=              3.0016  Tot=              3.0016
 Quadrupole moment (field-independent basis, Debye-Ang):
   XX=            -17.0009   YY=            -17.0009   ZZ=            -16.1756
   XY=              0.0000   XZ=             -0.0000   YZ=             -0.0000

 \#P ROCCSD(T)=(MaxCyc=150, FrzINGC)/Gen SCF=(maxcycle=400, vshift=200)
 Normal termination of Gaussian 16 at Thu Mar  8 18:38:13 2018.
