 Gaussian 16, Revision A.03,
 Gaussian 16:  ES64L-G16RevA.03 25-Dec-2016

 ----------------------------------------------------------------------
 #P ROCCSD(T)=(maxcyc=150, Full, SaveAmplitudes, ReadAmplitudes)/Gen 5d
  7f SCF=(maxcycles=300) Integral(NoXCTest) MaxDisk=500GB Pop=Regular P
 seudo=Read Guess=Read
 ----------------------------------------------------------------------

 ---
 ScO
 ---
 Symbolic Z-matrix:
 Charge =  0 Multiplicity = 2

                         Standard orientation:
 ---------------------------------------------------------------------
 Center     Atomic      Atomic             Coordinates (Angstroms)
 Number     Number       Type             X           Y           Z
 ---------------------------------------------------------------------
      1         21           0        0.000000    0.000000    0.441379
      2          8           0        0.000000    0.000000   -1.158621
 ---------------------------------------------------------------------

 SCF Done:  E(ROHF) =  -61.9570814668     A.U. after   17 cycles
 E2 =    -0.7099068803D+00 EUMP2 =    -0.62666988347099D+02
 CCSD(T)
 CCSD(T)= -0.62693138030D+02

 The electronic state is 2-SG.
 Alpha  occ. eigenvalues --   -2.63566  -1.66534  -1.60556  -1.60556  -1.12536
 Alpha  occ. eigenvalues --   -0.44187  -0.44187  -0.43880  -0.23979
 Alpha virt. eigenvalues --    0.00294   0.00294   0.01541   0.02088   0.02735
 Alpha virt. eigenvalues --    0.02735   0.03027   0.03027   0.03276   0.03390
 Alpha virt. eigenvalues --    0.03390   0.05168   0.07264   0.07264   0.09312

 Mulliken charges and spin densities:
               1          2
     1  Sc   1.255104   0.990523
     2  O   -1.255104   0.009477
 Sum of Mulliken charges =  -0.00000   1.00000

 Dipole moment (field-independent basis, Debye):
    X=              0.0000    Y=              0.0000    Z=              3.8556  Tot=              3.8556
 Quadrupole moment (field-independent basis, Debye-Ang):
   XX=            -21.8683   YY=            -21.8683   ZZ=            -31.7775
   XY=              0.0000   XZ=              0.0000   YZ=              0.0000

 \\#P ROCCSD(T)=(maxcyc=150, Full, SaveAmplitudes, ReadAmplitudes)/Gen
 570815\PMP2-0=-62.6669883\CCSD=-62.6534392\CCSD(T)=-62.693138\RMSD=2.8
 Normal termination of Gaussian 16 at Tue Mar 13 23:12:35 2018.
