 Gaussian 16, Revision A.03,
 Gaussian 16:  ES64L-G16RevA.03 25-Dec-2016

 ----------------------------------------------------------------------
 #P ROCCSD(T)=(MaxCyc=150, Full)/Gen SCF=(maxcycle=400, vshift=200) Pse
 udo=Read Integral(NoXCTest) Pop=Regular MaxDisk=500GB Guess=Read
 ----------------------------------------------------------------------

 ---
 NiO
 ---
 Symbolic Z-matrix:
 Charge =  0 Multiplicity = 3

                         Standard orientation:
 ---------------------------------------------------------------------
 Center     Atomic      Atomic             Coordinates (Angstroms)
 Number     Number       Type             X           Y           Z
 ---------------------------------------------------------------------
      1         28           0        0.000000    0.000000    0.266667
      2          8           0        0.000000    0.000000   -0.933333
 ---------------------------------------------------------------------

 SCF Done:  E(ROHF) =  -183.821075055     A.U. after   26 cycles
 E2 =    -0.1275310050D+01 EUMP2 =    -0.18509638510513D+03
 CCSD(T)
 CCSD(T)= -0.18504347959D+03

 The electronic state is 3-SG.
 Alpha  occ. eigenvalues --   -5.23029  -3.56299  -3.42409  -3.42409  -1.37816
 Alpha  occ. eigenvalues --   -0.90217  -0.90217  -0.76935  -0.70299  -0.70299
 Alpha  occ. eigenvalues --   -0.49364  -0.49364  -0.33739
 Alpha virt. eigenvalues --    0.00788   0.03023   0.03023   0.03531   0.05316
 Alpha virt. eigenvalues --    0.10175   0.10175   0.12053   0.12640   0.12640
 Alpha virt. eigenvalues --    0.12844   0.12844   0.13625   0.19187   0.25924

 Mulliken charges and spin densities:
               1          2
     1  Ni   0.746074   1.553195
     2  O   -0.746074   0.446805
 Sum of Mulliken charges =  -0.00000   2.00000

 Dipole moment (field-independent basis, Debye):
    X=              0.0000    Y=              0.0000    Z=              2.7781  Tot=              2.7781
 Quadrupole moment (field-independent basis, Debye-Ang):
   XX=            -19.2047   YY=            -19.2047   ZZ=            -18.9184
   XY=              0.0000   XZ=              0.0000   YZ=              0.0000

 \\#P ROCCSD(T)=(MaxCyc=150, Full)/Gen SCF=(maxcycle=400, vshift=200) P
 PMP2-0=-185.0963851\MP4SDQ=-185.0454707\CCSD=-184.9906947\CCSD(T)=-185
 Normal termination of Gaussian 16 at Fri May  4 11:30:37 2018.
