 Gaussian 16, Revision A.03,
 Gaussian 16:  ES64L-G16RevA.03 25-Dec-2016

 ----------------------------------------------------------------------
 #P ROCCSD(T)=(MaxCyc=150, Full)/Gen SCF=(maxcycle=400, vshift=200) Pse
 udo=Read Integral(NoXCTest) Pop=Regular MaxDisk=500GB Guess=Read
 ----------------------------------------------------------------------

 ---
 NiO
 ---
 Symbolic Z-matrix:
 Charge =  0 Multiplicity = 3

                         Standard orientation:
 ---------------------------------------------------------------------
 Center     Atomic      Atomic             Coordinates (Angstroms)
 Number     Number       Type             X           Y           Z
 ---------------------------------------------------------------------
      1         28           0        0.000000    0.000000    0.266667
      2          8           0        0.000000    0.000000   -0.933333
 ---------------------------------------------------------------------

 SCF Done:  E(ROHF) =  -183.811517156     A.U. after   21 cycles
 E2 =    -0.1337566544D+01 EUMP2 =    -0.18514908369990D+03
 CCSD(T)
 CCSD(T)= -0.18509180624D+03

 The electronic state is 3-SG.
 Alpha  occ. eigenvalues --   -5.20587  -3.57893  -3.44055  -3.44055  -1.37792
 Alpha  occ. eigenvalues --   -0.90251  -0.90251  -0.76908  -0.70341  -0.70341
 Alpha  occ. eigenvalues --   -0.49391  -0.49391  -0.33712
 Alpha virt. eigenvalues --    0.00756   0.02697   0.02697   0.03199   0.05000
 Alpha virt. eigenvalues --    0.07823   0.07823   0.08129   0.08371   0.08371
 Alpha virt. eigenvalues --    0.09657   0.09657   0.11657   0.17671   0.22135

 Mulliken charges and spin densities:
               1          2
     1  Ni   0.510824   1.567096
     2  O   -0.510824   0.432904
 Sum of Mulliken charges =  -0.00000   2.00000

 Dipole moment (field-independent basis, Debye):
    X=              0.0000    Y=              0.0000    Z=              2.7517  Tot=              2.7517
 Quadrupole moment (field-independent basis, Debye-Ang):
   XX=            -19.2197   YY=            -19.2197   ZZ=            -18.9226
   XY=              0.0000   XZ=              0.0000   YZ=              0.0000

 \\#P ROCCSD(T)=(MaxCyc=150, Full)/Gen SCF=(maxcycle=400, vshift=200) P
 PMP2-0=-185.1490837\MP4SDQ=-185.092197\CCSD=-185.0362705\CCSD(T)=-185.
 Normal termination of Gaussian 16 at Fri Aug 17 12:13:47 2018.
