 Gaussian 16, Revision A.03,
 Gaussian 16:  ES64L-G16RevA.03 25-Dec-2016

 ----------------------------------------------------------------------
 #P ROCCSD(T)=(MaxCyc=150, Full)/Gen SCF=(maxcycle=400, vshift=200) Pse
 udo=Read Integral(NoXCTest) Pop=Regular MaxDisk=500GB Guess=Read
 ----------------------------------------------------------------------

 ---
 NiO
 ---
 Symbolic Z-matrix:
 Charge =  0 Multiplicity = 3

                         Standard orientation:
 ---------------------------------------------------------------------
 Center     Atomic      Atomic             Coordinates (Angstroms)
 Number     Number       Type             X           Y           Z
 ---------------------------------------------------------------------
      1         28           0        0.000000    0.000000    0.266667
      2          8           0        0.000000    0.000000   -0.933333
 ---------------------------------------------------------------------

 SCF Done:  E(ROHF) =  -183.825517342     A.U. after   21 cycles
 E2 =    -0.1333569269D+01 EUMP2 =    -0.18515908661011D+03
 CCSD(T)
 CCSD(T)= -0.18510406140D+03

 The electronic state is 3-SG.
 Alpha  occ. eigenvalues --   -5.23023  -3.56270  -3.42399  -3.42399  -1.37767
 Alpha  occ. eigenvalues --   -0.90229  -0.90229  -0.76930  -0.70307  -0.70307
 Alpha  occ. eigenvalues --   -0.49379  -0.49379  -0.33722
 Alpha virt. eigenvalues --    0.00738   0.02697   0.02697   0.03202   0.04980
 Alpha virt. eigenvalues --    0.07822   0.07822   0.08124   0.08371   0.08371
 Alpha virt. eigenvalues --    0.09659   0.09659   0.11663   0.17654   0.22140

 Mulliken charges and spin densities:
               1          2
     1  Ni   0.514571   1.567983
     2  O   -0.514571   0.432017
 Sum of Mulliken charges =  -0.00000   2.00000

 Dipole moment (field-independent basis, Debye):
    X=              0.0000    Y=              0.0000    Z=              2.7657  Tot=              2.7657
 Quadrupole moment (field-independent basis, Debye-Ang):
   XX=            -19.2035   YY=            -19.2035   ZZ=            -18.9049
   XY=              0.0000   XZ=              0.0000   YZ=              0.0000

 \\#P ROCCSD(T)=(MaxCyc=150, Full)/Gen SCF=(maxcycle=400, vshift=200) P
 PMP2-0=-185.1590866\MP4SDQ=-185.1025752\CCSD=-185.0487202\CCSD(T)=-185
 Normal termination of Gaussian 16 at Fri May  4 13:50:02 2018.
