 Gaussian 16, Revision A.03,
 Gaussian 16:  ES64L-G16RevA.03 25-Dec-2016

 ----------------------------------------------------------------------
 #P ROCCSD(T)=(MaxCyc=150, Full)/Gen SCF=(maxcycle=400, vshift=200) Pse
 udo=Read Integral(NoXCTest) Pop=Regular MaxDisk=500GB Guess=Read
 ----------------------------------------------------------------------

 ---
 NiO
 ---
 Symbolic Z-matrix:
 Charge =  0 Multiplicity = 3

                         Standard orientation:
 ---------------------------------------------------------------------
 Center     Atomic      Atomic             Coordinates (Angstroms)
 Number     Number       Type             X           Y           Z
 ---------------------------------------------------------------------
      1         28           0        0.000000    0.000000    0.266667
      2          8           0        0.000000    0.000000   -0.933333
 ---------------------------------------------------------------------

 SCF Done:  E(ROHF) =  -183.807225086     A.U. after   26 cycles
 E2 =    -0.1279434270D+01 EUMP2 =    -0.18508665935576D+03
 CCSD(T)
 CCSD(T)= -0.18503149824D+03

 The electronic state is 3-SG.
 Alpha  occ. eigenvalues --   -5.20596  -3.57924  -3.44067  -3.44067  -1.37841
 Alpha  occ. eigenvalues --   -0.90239  -0.90239  -0.76913  -0.70333  -0.70333
 Alpha  occ. eigenvalues --   -0.49376  -0.49376  -0.33729
 Alpha virt. eigenvalues --    0.00806   0.03024   0.03024   0.03529   0.05337
 Alpha virt. eigenvalues --    0.10176   0.10176   0.12058   0.12637   0.12637
 Alpha virt. eigenvalues --    0.12844   0.12844   0.13619   0.19203   0.25925

 Mulliken charges and spin densities:
               1          2
     1  Ni   0.747209   1.552661
     2  O   -0.747209   0.447339
 Sum of Mulliken charges =  -0.00000   2.00000

 Dipole moment (field-independent basis, Debye):
    X=              0.0000    Y=              0.0000    Z=              2.7641  Tot=              2.7641
 Quadrupole moment (field-independent basis, Debye-Ang):
   XX=            -19.2207   YY=            -19.2207   ZZ=            -18.9360
   XY=              0.0000   XZ=              0.0000   YZ=              0.0000

 \\#P ROCCSD(T)=(MaxCyc=150, Full)/Gen SCF=(maxcycle=400, vshift=200) P
 PMP2-0=-185.0866594\MP4SDQ=-185.0353685\CCSD=-184.9785132\CCSD(T)=-185
 Normal termination of Gaussian 16 at Fri Aug 17 11:18:58 2018.
