 Gaussian 16, Revision A.03,
 Gaussian 16:  ES64L-G16RevA.03 25-Dec-2016

 ----------------------------------------------------------------------
 #P ROCCSD(T)=(MaxCyc=150, Full)/Gen SCF=(maxcycle=400, vshift=200) Pse
 udo=Read Integral(NoXCTest) Pop=Regular MaxDisk=500GB Guess=Read IOp(5
 /15=2)
 ----------------------------------------------------------------------

 ---
 CoH
 ---
 Symbolic Z-matrix:
 Charge =  0 Multiplicity = 3

                         Standard orientation:
 ---------------------------------------------------------------------
 Center     Atomic      Atomic             Coordinates (Angstroms)
 Number     Number       Type             X           Y           Z
 ---------------------------------------------------------------------
      1         27           0        0.000000    0.000000    0.042857
      2          1           0        0.000000    0.000000   -1.157143
 ---------------------------------------------------------------------

 SCF Done:  E(ROHF) =  -144.743728850     A.U. after   66 cycles
 E2 =    -0.8898100948D+00 EUMP2 =    -0.14563353894516D+03
 CCSD(T)
 CCSD(T)= -0.14560739819D+03

 Unable to determine electronic state:  partially filled degenerate orbitals.
 Alpha  occ. eigenvalues --   -4.54510  -2.96399  -2.95959  -2.95959  -0.51908
 Alpha  occ. eigenvalues --   -0.49110  -0.45500  -0.45500  -0.44692  -0.30817
 Alpha virt. eigenvalues --    0.00818   0.02707   0.02707   0.03093   0.05848
 Alpha virt. eigenvalues --    0.09316   0.09316   0.10239   0.11430   0.11470
 Alpha virt. eigenvalues --    0.11480   0.11522   0.11522   0.18776   0.26470

 Mulliken charges and spin densities:
               1          2
     1  Co   0.291006   1.966562
     2  H   -0.291006   0.033438
 Sum of Mulliken charges =  -0.00000   2.00000

 Dipole moment (field-independent basis, Debye):
    X=              0.0000    Y=              0.0000    Z=              3.5765  Tot=              3.5765
 Quadrupole moment (field-independent basis, Debye-Ang):
   XX=            -14.0611   YY=            -14.0611   ZZ=            -16.2208
   XY=              0.0000   XZ=              0.0000   YZ=              0.0000

 \\#P ROCCSD(T)=(MaxCyc=150, Full)/Gen SCF=(maxcycle=400, vshift=200) P
 \PMP2-0=-145.6335389\MP4SDQ=-145.6042903\CCSD=-145.5751624\CCSD(T)=-14
 Normal termination of Gaussian 16 at Thu May  3 15:09:48 2018.
