 Gaussian 16, Revision A.03,
 Gaussian 16:  ES64L-G16RevA.03 25-Dec-2016

 ----------------------------------------------------------------------
 #P ROCCSD(T)=(MaxCyc=150, Full)/Gen SCF=(maxcycle=400, vshift=200) Pse
 udo=Read Integral(NoXCTest) Pop=Regular MaxDisk=500GB Guess=Read IOp(5
 /15=2)
 ----------------------------------------------------------------------

 ---
 CoH
 ---
 Symbolic Z-matrix:
 Charge =  0 Multiplicity = 3

                         Standard orientation:
 ---------------------------------------------------------------------
 Center     Atomic      Atomic             Coordinates (Angstroms)
 Number     Number       Type             X           Y           Z
 ---------------------------------------------------------------------
      1         27           0        0.000000    0.000000    0.042857
      2          1           0        0.000000    0.000000   -1.157143
 ---------------------------------------------------------------------

 SCF Done:  E(ROHF) =  -144.745511704     A.U. after   31 cycles
 E2 =    -0.9312912116D+00 EUMP2 =    -0.14567680291579D+03
 CCSD(T)
 CCSD(T)= -0.14564913251D+03

 Unable to determine electronic state:  partially filled degenerate orbitals.
 Alpha  occ. eigenvalues --   -4.54495  -2.96382  -2.95942  -2.95942  -0.51909
 Alpha  occ. eigenvalues --   -0.49109  -0.45505  -0.45505  -0.44695  -0.30814
 Alpha virt. eigenvalues --    0.00771   0.02473   0.02473   0.02839   0.05654
 Alpha virt. eigenvalues --    0.07023   0.07404   0.07417   0.07541   0.07541
 Alpha virt. eigenvalues --    0.08491   0.08491   0.09764   0.19045   0.21051

 Mulliken charges and spin densities:
               1          2
     1  Co   0.460812   1.998882
     2  H   -0.460812   0.001118
 Sum of Mulliken charges =  -0.00000   2.00000

 Dipole moment (field-independent basis, Debye):
    X=              0.0000    Y=              0.0000    Z=              3.5751  Tot=              3.5751
 Quadrupole moment (field-independent basis, Debye-Ang):
   XX=            -14.0514   YY=            -14.0514   ZZ=            -16.2194
   XY=              0.0000   XZ=              0.0000   YZ=              0.0000

 \\#P ROCCSD(T)=(MaxCyc=150, Full)/Gen SCF=(maxcycle=400, vshift=200) P
 \PMP2-0=-145.6768029\MP4SDQ=-145.6437907\CCSD=-145.6152934\CCSD(T)=-14
 Normal termination of Gaussian 16 at Thu May  3 15:55:25 2018.
