 Gaussian 16, Revision A.03,
 Gaussian 16:  ES64L-G16RevA.03 25-Dec-2016

 ----------------------------------------------------------------------
 #P ROCCSD(T)=(MaxCyc=150, Full)/Gen SCF=(maxcycle=400, vshift=200) Pse
 udo=Read Integral(NoXCTest) Pop=Regular MaxDisk=500GB Guess=Read IOp(5
 /15=2)
 ----------------------------------------------------------------------

 ---
 CoH
 ---
 Symbolic Z-matrix:
 Charge =  0 Multiplicity = 3

                         Standard orientation:
 ---------------------------------------------------------------------
 Center     Atomic      Atomic             Coordinates (Angstroms)
 Number     Number       Type             X           Y           Z
 ---------------------------------------------------------------------
      1         27           0        0.000000    0.000000    0.042857
      2          1           0        0.000000    0.000000   -1.157143
 ---------------------------------------------------------------------

 SCF Done:  E(ROHF) =  -144.745873109     A.U. after   27 cycles
 E2 =    -0.9514900436D+00 EUMP2 =    -0.14569736315236D+03
 CCSD(T)
 CCSD(T)= -0.14566746686D+03

 Unable to determine electronic state:  partially filled degenerate orbitals.
 Alpha  occ. eigenvalues --   -4.54498  -2.96380  -2.95940  -2.95940  -0.51907
 Alpha  occ. eigenvalues --   -0.49107  -0.45512  -0.45512  -0.44700  -0.30813
 Alpha virt. eigenvalues --    0.00666   0.02394   0.02394   0.02546   0.04863
 Alpha virt. eigenvalues --    0.06543   0.06690   0.06699   0.06856   0.06856
 Alpha virt. eigenvalues --    0.08097   0.08097   0.08476   0.14815   0.19004

 Mulliken charges and spin densities:
               1          2
     1  Co   0.376978   1.952740
     2  H   -0.376978   0.047260
 Sum of Mulliken charges =  -0.00000   2.00000

 Dipole moment (field-independent basis, Debye):
    X=              0.0000    Y=              0.0000    Z=              3.5746  Tot=              3.5746
 Quadrupole moment (field-independent basis, Debye-Ang):
   XX=            -14.0507   YY=            -14.0507   ZZ=            -16.2199
   XY=              0.0000   XZ=              0.0000   YZ=              0.0000

 \\#P ROCCSD(T)=(MaxCyc=150, Full)/Gen SCF=(maxcycle=400, vshift=200) P
 \PMP2-0=-145.6973632\MP4SDQ=-145.6611273\CCSD=-145.6330167\CCSD(T)=-14
 Normal termination of Gaussian 16 at Thu May  3 18:13:17 2018.
