 Gaussian 16, Revision A.03,
 Gaussian 16:  ES64L-G16RevA.03 25-Dec-2016

 ----------------------------------------------------------------------
 #P ROCCSD(T)=(maxcyc=150, Window=(7,0), SaveAmplitudes, ReadAmplitudes
 )/Gen 5d 7f SCF=(maxcycles=300) Integral(NoXCTest, DKHSO) MaxDisk=500G
 B Pop=Regular Guess=Read
 ----------------------------------------------------------------------

 ---
 MnO
 ---
 Symbolic Z-matrix:
 Charge =  0 Multiplicity = 6

                         Standard orientation:
 ---------------------------------------------------------------------
 Center     Atomic      Atomic             Coordinates (Angstroms)
 Number     Number       Type             X           Y           Z
 ---------------------------------------------------------------------
      1         25           0        0.000000    0.000000    0.315152
      2          8           0        0.000000    0.000000   -0.984848
 ---------------------------------------------------------------------

 SCF Done:  E(ROHF) =  -1232.07005013     A.U. after   22 cycles
 E2 =    -0.9608763375D+00 EUMP2 =    -0.12330309264665D+04
 CCSD(T)
 CCSD(T)= -0.12330263801D+04

 The electronic state is 6-SG.
 Alpha  occ. eigenvalues -- -242.50382 -29.60523 -24.96000 -24.96000 -24.95204
 Alpha  occ. eigenvalues --  -20.54831  -4.07313  -2.72628  -2.71951  -2.71951
 Alpha  occ. eigenvalues --   -1.25834  -0.73262  -0.73262  -0.61223  -0.61223
 Alpha  occ. eigenvalues --   -0.59941  -0.40528  -0.40528  -0.30131
 Alpha virt. eigenvalues --    0.01821   0.02213   0.02213   0.02925   0.05378
 Alpha virt. eigenvalues --    0.05972   0.05972   0.05978   0.05978   0.07524
 Alpha virt. eigenvalues --    0.07524   0.07832   0.11237   0.14806   0.18071

 Mulliken charges and spin densities:
               1          2
     1  Mn   1.005549   4.731600
     2  O   -1.005549   0.268400
 Sum of Mulliken charges =  -0.00000   5.00000

 Dipole moment (field-independent basis, Debye):
    X=              0.0000    Y=              0.0000    Z=              2.7092  Tot=              2.7092
 Quadrupole moment (field-independent basis, Debye-Ang):
   XX=            -20.1767   YY=            -20.1767   ZZ=            -23.2859
   XY=              0.0000   XZ=              0.0000   YZ=              0.0000

 1\1\GINC-C493-001\SP\ROCCSD(T)-RW\Gen\Mn1O1(6)\AANNABE\14-Mar-2018\0\\
 #P ROCCSD(T)=(maxcyc=150, Window=(7,0), SaveAmplitudes, ReadAmplitudes
 )/Gen 5d 7f SCF=(maxcycles=300) Integral(NoXCTest, DKHSO) MaxDisk=500G
 B Pop=Regular Guess=Read\\MnO\\0,6\Mn,0,0.,0.,0.\O,0,0.,0.,1.3\\Versio
 n=ES64L-G16RevA.03\State=6-SG\HF=-1232.0700501\MP2=-1233.0309265\PUHF=
 -1232.0700501\PMP2-0=-1233.0309265\CCSD=-1232.9861362\CCSD(T)=-1233.02
 63801\RMSD=3.420e-09\PG=C*V [C*(O1Mn1)]\\@

 Normal termination of Gaussian 16 at Wed Mar 14 14:48:31 2018.
