 Gaussian 16, Revision A.03,
 Gaussian 16:  ES64L-G16RevA.03 25-Dec-2016

 ----------------------------------------------------------------------
 #P ROCCSD(T)=(maxcyc=150, Full, SaveAmplitudes, ReadAmplitudes)/Gen 5d
  7f SCF=(maxcycles=300) Integral(NoXCTest) MaxDisk=500GB Pop=Regular P
 seudo=Read Guess=Read
 ----------------------------------------------------------------------

 ---
 ScO
 ---
 Symbolic Z-matrix:
 Charge =  0 Multiplicity = 2

                         Standard orientation:
 ---------------------------------------------------------------------
 Center     Atomic      Atomic             Coordinates (Angstroms)
 Number     Number       Type             X           Y           Z
 ---------------------------------------------------------------------
      1         21           0        0.000000    0.000000    0.524138
      2          8           0        0.000000    0.000000   -1.375862
 ---------------------------------------------------------------------

 SCF Done:  E(ROHF) =  -61.7939096516     A.U. after   16 cycles
 E2 =    -0.7177351796D+00 EUMP2 =    -0.62511644831185D+02
 CCSD(T)
 CCSD(T)= -0.62541062464D+02

 The electronic state is 2-SG.
 Alpha  occ. eigenvalues --   -2.71511  -1.68844  -1.68778  -1.68778  -1.10115
 Alpha  occ. eigenvalues --   -0.40297  -0.36571  -0.36571  -0.27375
 Alpha virt. eigenvalues --   -0.00869  -0.00869   0.00808   0.01815   0.02579
 Alpha virt. eigenvalues --    0.02579   0.02604   0.02604   0.03260   0.03260
 Alpha virt. eigenvalues --    0.03444   0.03910   0.05264   0.05264   0.08879

 Mulliken charges and spin densities:
               1          2
     1  Sc   1.240488   0.984861
     2  O   -1.240488   0.015139
 Sum of Mulliken charges =  -0.00000   1.00000

 Dipole moment (field-independent basis, Debye):
    X=              0.0000    Y=              0.0000    Z=              6.6221  Tot=              6.6221
 Quadrupole moment (field-independent basis, Debye-Ang):
   XX=            -22.0603   YY=            -22.0603   ZZ=            -34.1845
   XY=              0.0000   XZ=              0.0000   YZ=              0.0000

 \\#P ROCCSD(T)=(maxcyc=150, Full, SaveAmplitudes, ReadAmplitudes)/Gen
 939097\PMP2-0=-62.5116448\CCSD=-62.4921741\CCSD(T)=-62.5410625\RMSD=3.
 Normal termination of Gaussian 16 at Wed Feb 21 07:49:18 2018.
