 Gaussian 16, Revision A.03,
 Gaussian 16:  ES64L-G16RevA.03 25-Dec-2016

 ----------------------------------------------------------------------
 #P ROCCSD(T)=(MaxCyc=150, Full)/Gen SCF=(maxcycle=400) Pseudo=Read Int
 egral(NoXCTest) Pop=Regular MaxDisk=500GB
 ----------------------------------------------------------------------

 ---
 FeO
 ---
 Symbolic Z-matrix:
 Charge =  0 Multiplicity = 5

                         Standard orientation:
 ---------------------------------------------------------------------
 Center     Atomic      Atomic             Coordinates (Angstroms)
 Number     Number       Type             X           Y           Z
 ---------------------------------------------------------------------
      1         26           0        0.000000    0.000000    0.352941
      2          8           0        0.000000    0.000000   -1.147059
 ---------------------------------------------------------------------

 SCF Done:  E(ROHF) =  -138.637089580     A.U. after   33 cycles
 E2 =    -0.1057716475D+01 EUMP2 =    -0.13969480605509D+03
 CCSD(T)
 CCSD(T)= -0.13970883538D+03

 Unable to determine electronic state:  partially filled degenerate orbitals.
 Alpha  occ. eigenvalues --   -4.55536  -3.01918  -2.95152  -2.95152  -1.17006
 Alpha  occ. eigenvalues --   -0.68278  -0.68278  -0.62706  -0.61185  -0.58045
 Alpha  occ. eigenvalues --   -0.36677  -0.36677  -0.35000
 Alpha virt. eigenvalues --   -0.03059   0.01818   0.01818   0.02323   0.03563
 Alpha virt. eigenvalues --    0.06405   0.06405   0.06540   0.06550   0.06634
 Alpha virt. eigenvalues --    0.08138   0.08138   0.12360   0.14022   0.19462

 Mulliken charges and spin densities:
               1          2
     1  Fe   1.168255   3.803223
     2  O   -1.168255   0.196777
 Sum of Mulliken charges =  -0.00000   4.00000

 Dipole moment (field-independent basis, Debye):
    X=              0.0000    Y=              0.0000    Z=              7.6208  Tot=              7.6208
 Quadrupole moment (field-independent basis, Debye-Ang):
   XX=            -18.3424   YY=            -18.3424   ZZ=            -21.4537
   XY=              0.0000   XZ=              0.0000   YZ=              0.0000

 \\#P ROCCSD(T)=(MaxCyc=150, Full)/Gen SCF=(maxcycle=400) Pseudo=Read I
 6392\CCSD=-139.6603067\CCSD(T)=-139.7088354\RMSD=6.472e-09\PG=C*V [C*(
 Normal termination of Gaussian 16 at Sun Mar 25 02:38:30 2018.
