 Gaussian 16, Revision A.03,
 Gaussian 16:  ES64L-G16RevA.03 25-Dec-2016

 ----------------------------------------------------------------------
 #P ROCCSD(T)=(MaxCyc=150, Full)/Gen SCF=(maxcycle=400) Pseudo=Read Int
 egral(NoXCTest) Pop=Regular MaxDisk=500GB
 ----------------------------------------------------------------------

 ---
 FeO
 ---
 Symbolic Z-matrix:
 Charge =  0 Multiplicity = 5

                         Standard orientation:
 ---------------------------------------------------------------------
 Center     Atomic      Atomic             Coordinates (Angstroms)
 Number     Number       Type             X           Y           Z
 ---------------------------------------------------------------------
      1         26           0        0.000000    0.000000    0.352941
      2          8           0        0.000000    0.000000   -1.147059
 ---------------------------------------------------------------------

 SCF Done:  E(ROHF) =  -138.640141425     A.U. after   34 cycles
 E2 =    -0.1009964586D+01 EUMP2 =    -0.13965010601169D+03
 CCSD(T)
 CCSD(T)= -0.13966665155D+03

 Unable to determine electronic state:  partially filled degenerate orbitals.
 Alpha  occ. eigenvalues --   -4.55700  -3.01908  -2.95134  -2.95134  -1.17032
 Alpha  occ. eigenvalues --   -0.68281  -0.68281  -0.62712  -0.61198  -0.58048
 Alpha  occ. eigenvalues --   -0.36675  -0.36675  -0.35016
 Alpha virt. eigenvalues --   -0.03062   0.02114   0.02114   0.02605   0.03972
 Alpha virt. eigenvalues --    0.07637   0.07637   0.09058   0.09752   0.09783
 Alpha virt. eigenvalues --    0.10774   0.10774   0.14406   0.15044   0.25598

 Mulliken charges and spin densities:
               1          2
     1  Fe   1.124970   3.782472
     2  O   -1.124970   0.217528
 Sum of Mulliken charges =  -0.00000   4.00000

 Dipole moment (field-independent basis, Debye):
    X=              0.0000    Y=              0.0000    Z=              7.6308  Tot=              7.6308
 Quadrupole moment (field-independent basis, Debye-Ang):
   XX=            -18.3405   YY=            -18.3405   ZZ=            -21.4736
   XY=              0.0000   XZ=              0.0000   YZ=              0.0000

 \\#P ROCCSD(T)=(MaxCyc=150, Full)/Gen SCF=(maxcycle=400) Pseudo=Read I
 001\CCSD=-139.6203815\CCSD(T)=-139.6666515\RMSD=4.125e-09\PG=C*V [C*(O
 Normal termination of Gaussian 16 at Sun Mar 25 00:34:18 2018.
