 Gaussian 16, Revision A.03,
 Gaussian 16:  ES64L-G16RevA.03 25-Dec-2016

 ----------------------------------------------------------------------
 #P ROCCSD(T)=(MaxCyc=150, Full)/Gen SCF=(maxcycle=400) Pseudo=Read Int
 egral(NoXCTest) Pop=Regular MaxDisk=500GB Guess=Read IOp(5/15=2)
 ----------------------------------------------------------------------

 ---
 NiO
 ---
 Symbolic Z-matrix:
 Charge =  0 Multiplicity = 3

                         Standard orientation:
 ---------------------------------------------------------------------
 Center     Atomic      Atomic             Coordinates (Angstroms)
 Number     Number       Type             X           Y           Z
 ---------------------------------------------------------------------
      1         28           0        0.000000    0.000000    0.355556
      2          8           0        0.000000    0.000000   -1.244444
 ---------------------------------------------------------------------

 SCF Done:  E(ROHF) =  -185.646370871     A.U. after   20 cycles
 E2 =    -0.1227119699D+01 EUMP2 =    -0.18687349056963D+03
 CCSD(T)
 CCSD(T)= -0.18689535776D+03

 The electronic state is 3-SG.
 Alpha  occ. eigenvalues --   -5.18633  -3.55931  -3.47424  -3.47424  -1.17467
 Alpha  occ. eigenvalues --   -0.80476  -0.80476  -0.73628  -0.71252  -0.71252
 Alpha  occ. eigenvalues --   -0.38320  -0.38320  -0.37376
 Alpha virt. eigenvalues --   -0.05117   0.01886   0.01886   0.01987   0.03884
 Alpha virt. eigenvalues --    0.06929   0.06929   0.07577   0.08016   0.08016
 Alpha virt. eigenvalues --    0.09200   0.09200   0.12855   0.14992   0.21994

 Mulliken charges and spin densities:
               1          2
     1  Ni   1.001647   1.893473
     2  O   -1.001647   0.106527
 Sum of Mulliken charges =  -0.00000   2.00000

 Dipole moment (field-independent basis, Debye):
    X=              0.0000    Y=              0.0000    Z=              7.9630  Tot=              7.9630
 Quadrupole moment (field-independent basis, Debye-Ang):
   XX=            -18.2371   YY=            -18.2371   ZZ=            -20.9513
   XY=              0.0000   XZ=              0.0000   YZ=              0.0000

 \\#P ROCCSD(T)=(MaxCyc=150, Full)/Gen SCF=(maxcycle=400) Pseudo=Read I
 PMP2-0=-186.8734906\MP4SDQ=-186.842337\CCSD=-186.8315048\CCSD(T)=-186.
 Normal termination of Gaussian 16 at Tue Mar 27 13:41:42 2018.
