 Gaussian 16, Revision A.03,
 Gaussian 16:  ES64L-G16RevA.03 25-Dec-2016

 ----------------------------------------------------------------------
 #P ROCCSD(T)=(MaxCyc=150, Full)/Gen SCF=(maxcycle=400) Pseudo=Read Int
 egral(NoXCTest) Pop=Regular MaxDisk=500GB Guess=Read IOp(5/15=2)
 ----------------------------------------------------------------------

 ---
 NiO
 ---
 Symbolic Z-matrix:
 Charge =  0 Multiplicity = 3

                         Standard orientation:
 ---------------------------------------------------------------------
 Center     Atomic      Atomic             Coordinates (Angstroms)
 Number     Number       Type             X           Y           Z
 ---------------------------------------------------------------------
      1         28           0        0.000000    0.000000    0.355556
      2          8           0        0.000000    0.000000   -1.244444
 ---------------------------------------------------------------------

 SCF Done:  E(ROHF) =  -185.642585839     A.U. after   22 cycles
 E2 =    -0.1169910199D+01 EUMP2 =    -0.18681249603830D+03
 CCSD(T)
 CCSD(T)= -0.18683657973D+03

 The electronic state is 3-SG.
 Alpha  occ. eigenvalues --   -5.18638  -3.55950  -3.47436  -3.47436  -1.17526
 Alpha  occ. eigenvalues --   -0.80480  -0.80480  -0.73636  -0.71252  -0.71252
 Alpha  occ. eigenvalues --   -0.38314  -0.38314  -0.37386
 Alpha virt. eigenvalues --   -0.05126   0.02259   0.02259   0.02270   0.04304
 Alpha virt. eigenvalues --    0.08140   0.08140   0.10600   0.12172   0.12172
 Alpha virt. eigenvalues --    0.13242   0.13242   0.15520   0.16167   0.26367

 Mulliken charges and spin densities:
               1          2
     1  Ni   1.116814   1.891908
     2  O   -1.116814   0.108092
 Sum of Mulliken charges =  -0.00000   2.00000

 Dipole moment (field-independent basis, Debye):
    X=              0.0000    Y=              0.0000    Z=              7.9763  Tot=              7.9763
 Quadrupole moment (field-independent basis, Debye-Ang):
   XX=            -18.2459   YY=            -18.2459   ZZ=            -20.9673
   XY=              0.0000   XZ=              0.0000   YZ=              0.0000

 \\#P ROCCSD(T)=(MaxCyc=150, Full)/Gen SCF=(maxcycle=400) Pseudo=Read I
 MP2-0=-186.812496\MP4SDQ=-186.7871142\CCSD=-186.7753058\CCSD(T)=-186.8
 Normal termination of Gaussian 16 at Tue Mar 27 11:11:01 2018.
