 Gaussian 16, Revision A.03,
 Gaussian 16:  ES64L-G16RevA.03 25-Dec-2016

 ----------------------------------------------------------------------
 #P ROHF/Gen 5d 7f SCF=(maxcycles=500) Integral(Grid=525302, DKHSO) Max
 Disk=5000GB Pop=Full
 ----------------------------------------------------------------------

 -
 H
 -
 Symbolic Z-matrix:
 Charge =  0 Multiplicity = 2

                         Standard orientation:
 ---------------------------------------------------------------------
 Center     Atomic      Atomic             Coordinates (Angstroms)
 Number     Number       Type             X           Y           Z
 ---------------------------------------------------------------------
      1          1           0        0.000000    0.000000    0.000000
 ---------------------------------------------------------------------

 SCF Done:  E(ROHF) = -0.500001431751     A.U. after   10 cycles

 The electronic state is 2-A1G.
 Alpha  occ. eigenvalues --   -0.12500
 Alpha virt. eigenvalues --    0.04335   0.15624   0.15624   0.15624   0.27443
 Alpha virt. eigenvalues --    0.49945   0.49945   0.49945   0.49945   0.49945
 Alpha virt. eigenvalues --    0.64458   0.64458   0.64458   1.00526   1.17166

 Mulliken charges and spin densities:
               1          2
     1  H   -0.000000   1.000000
 Sum of Mulliken charges =  -0.00000   1.00000

 Dipole moment (field-independent basis, Debye):
    X=              0.0000    Y=              0.0000    Z=              0.0000  Tot=              0.0000
 Quadrupole moment (field-independent basis, Debye-Ang):
   XX=             -1.3452   YY=             -1.3452   ZZ=             -1.3452
   XY=             -0.0000   XZ=             -0.0000   YZ=              0.0000

 Normal termination of Gaussian 16 at Mon Jan 29 13:03:29 2018.
