 Gaussian 16, Revision A.03,
 Gaussian 16:  ES64L-G16RevA.03 25-Dec-2016

 ----------------------------------------------------------------------
 #P ROCCSD(T)=(maxcyc=150, Full, SaveAmplitudes, ReadAmplitudes)/Gen 5d
  7f SCF=(maxcycles=300) Integral(NoXCTest) MaxDisk=500GB Pop=Regular P
 seudo=Read Guess=Read IOp(5/15=2)
 ----------------------------------------------------------------------

 ---
 CrH
 ---
 Symbolic Z-matrix:
 Charge =  0 Multiplicity = 6

                         Standard orientation:
 ---------------------------------------------------------------------
 Center     Atomic      Atomic             Coordinates (Angstroms)
 Number     Number       Type             X           Y           Z
 ---------------------------------------------------------------------
      1         24           0        0.000000    0.000000    0.060000
      2          1           0        0.000000    0.000000   -1.440000
 ---------------------------------------------------------------------

 SCF Done:  E(ROHF) =  -86.8694018453     A.U. after   28 cycles
 E2 =    -0.5521382025D+00 EUMP2 =    -0.87421540047809D+02
 CCSD(T)
 CCSD(T)= -0.87461996584D+02

 The electronic state is 6-SG.
 Alpha  occ. eigenvalues --   -3.71815  -2.41715  -2.41715  -2.37770  -0.51841
 Alpha  occ. eigenvalues --   -0.51841  -0.48807  -0.48807  -0.42716  -0.25645
 Alpha virt. eigenvalues --    0.01511   0.01511   0.02228   0.02433   0.05825
 Alpha virt. eigenvalues --    0.05825   0.06018   0.07715   0.07715   0.08093
 Alpha virt. eigenvalues --    0.08093   0.08580   0.10213   0.18611   0.21513

 Mulliken charges and spin densities:
               1          2
     1  Cr   0.585264   4.991862
     2  H   -0.585264   0.008138
 Sum of Mulliken charges =  -0.00000   5.00000

 Dipole moment (field-independent basis, Debye):
    X=              0.0000    Y=              0.0000    Z=              1.9335  Tot=              1.9335
 Quadrupole moment (field-independent basis, Debye-Ang):
   XX=            -16.8112   YY=            -16.8112   ZZ=            -22.0031
   XY=              0.0000   XZ=              0.0000   YZ=              0.0000

 \\#P ROCCSD(T)=(maxcyc=150, Full, SaveAmplitudes, ReadAmplitudes)/Gen
 SD=-87.4436644\CCSD(T)=-87.4619966\RMSD=4.576e-09\PG=C*V [C*(H1Cr1)]\\
 Normal termination of Gaussian 16 at Mon Feb 26 05:31:08 2018.
