 Gaussian 16, Revision A.03,
 Gaussian 16:  ES64L-G16RevA.03 25-Dec-2016

 ----------------------------------------------------------------------
 #P ROCCSD(T)=(maxcyc=150, Full, SaveAmplitudes, ReadAmplitudes)/Gen 5d
  7f SCF=(maxcycles=300) Integral(NoXCTest) MaxDisk=500GB Pop=Regular P
 seudo=Read Guess=Read IOp(5/15=2)
 ----------------------------------------------------------------------

 ---
 ScO
 ---
 Symbolic Z-matrix:
 Charge =  0 Multiplicity = 2

                         Standard orientation:
 ---------------------------------------------------------------------
 Center     Atomic      Atomic             Coordinates (Angstroms)
 Number     Number       Type             X           Y           Z
 ---------------------------------------------------------------------
      1         21           0        0.000000    0.000000    0.386207
      2          8           0        0.000000    0.000000   -1.013793
 ---------------------------------------------------------------------

 SCF Done:  E(ROHF) =  -61.9975011820     A.U. after   18 cycles
 E2 =    -0.6811976497D+00 EUMP2 =    -0.62678698831636D+02
 CCSD(T)
 CCSD(T)= -0.62705309287D+02

 The electronic state is 2-SG.
 Alpha  occ. eigenvalues --   -2.64100  -1.70419  -1.54343  -1.54343  -1.08095
 Alpha  occ. eigenvalues --   -0.52337  -0.52337  -0.45871  -0.21071
 Alpha virt. eigenvalues --    0.00833   0.00833   0.02201   0.02228   0.03748
 Alpha virt. eigenvalues --    0.03748   0.03836   0.03836   0.03995   0.04550
 Alpha virt. eigenvalues --    0.04550   0.07102   0.10418   0.10418   0.10972

 Mulliken charges and spin densities:
               1          2
     1  Sc   1.266648   0.988242
     2  O   -1.266648   0.011758
 Sum of Mulliken charges =  -0.00000   1.00000

 Dipole moment (field-independent basis, Debye):
    X=              0.0000    Y=              0.0000    Z=              1.5439  Tot=              1.5439
 Quadrupole moment (field-independent basis, Debye-Ang):
   XX=            -22.2363   YY=            -22.2363   ZZ=            -30.3124
   XY=              0.0000   XZ=              0.0000   YZ=              0.0000

 \\#P ROCCSD(T)=(maxcyc=150, Full, SaveAmplitudes, ReadAmplitudes)/Gen
 18\CCSD=-62.6725354\CCSD(T)=-62.7053093\RMSD=2.486e-09\PG=C*V [C*(O1Sc
 Normal termination of Gaussian 16 at Wed Feb 28 18:57:34 2018.
