 Gaussian 16, Revision A.03,
 Gaussian 16:  ES64L-G16RevA.03 25-Dec-2016

 ----------------------------------------------------------------------
 #P ROCCSD(T)=(MaxCyc=150, Full)/Gen SCF=(maxcycle=400, vshift=200) Pse
 udo=Read Integral(NoXCTest) Pop=Regular MaxDisk=500GB Guess=Read IOp(5
 /15=2)
 ----------------------------------------------------------------------

 ---
 ZnH
 ---
 Symbolic Z-matrix:
 Charge =  0 Multiplicity = 2

                         Standard orientation:
 ---------------------------------------------------------------------
 Center     Atomic      Atomic             Coordinates (Angstroms)
 Number     Number       Type             X           Y           Z
 ---------------------------------------------------------------------
      1         30           0        0.000000    0.000000    0.048387
      2          1           0        0.000000    0.000000   -1.451613
 ---------------------------------------------------------------------

 SCF Done:  E(ROHF) =  -226.488908949     A.U. after   17 cycles
 E2 =    -0.1092243594D+01 EUMP2 =    -0.22758115254319D+03
 CCSD(T)
 CCSD(T)= -0.22752874350D+03

 The electronic state is 2-SG.
 Alpha  occ. eigenvalues --   -5.89862  -3.96983  -3.96983  -3.96890  -0.80128
 Alpha  occ. eigenvalues --   -0.79901  -0.79901  -0.79444  -0.79444  -0.46696
 Alpha  occ. eigenvalues --   -0.27534
 Alpha virt. eigenvalues --    0.01980   0.01980   0.02705   0.03610   0.06757
 Alpha virt. eigenvalues --    0.06757   0.07883   0.14222   0.17227   0.17907
 Alpha virt. eigenvalues --    0.17907   0.18132   0.18132   0.21314   0.23389

 Mulliken charges and spin densities:
               1          2
     1  Zn   0.295192   0.930541
     2  H   -0.295192   0.069459
 Sum of Mulliken charges =  -0.00000   1.00000

 Dipole moment (field-independent basis, Debye):
    X=              0.0000    Y=              0.0000    Z=              0.4925  Tot=              0.4925
 Quadrupole moment (field-independent basis, Debye-Ang):
   XX=            -14.5147   YY=            -14.5147   ZZ=            -20.9273
   XY=              0.0000   XZ=              0.0000   YZ=              0.0000

 \\#P ROCCSD(T)=(MaxCyc=150, Full)/Gen SCF=(maxcycle=400, vshift=200) P
 Normal termination of Gaussian 16 at Sat Apr 21 11:19:57 2018.
