 Gaussian 16, Revision A.03,
 Gaussian 16:  ES64L-G16RevA.03 25-Dec-2016

 ----------------------------------------------------------------------
 #P ROCCSD(T)=(MaxCyc=150, Full)/Gen SCF=(maxcycle=400, vshift=200) Pse
 udo=Read Integral(NoXCTest) Pop=Regular MaxDisk=500GB Guess=Read IOp(5
 /15=2)
 ----------------------------------------------------------------------

 ---
 ZnH
 ---
 Symbolic Z-matrix:
 Charge =  0 Multiplicity = 2

                         Standard orientation:
 ---------------------------------------------------------------------
 Center     Atomic      Atomic             Coordinates (Angstroms)
 Number     Number       Type             X           Y           Z
 ---------------------------------------------------------------------
      1         30           0        0.000000    0.000000    0.048387
      2          1           0        0.000000    0.000000   -1.451613
 ---------------------------------------------------------------------

 SCF Done:  E(ROHF) =  -226.489026261     A.U. after   20 cycles
 E2 =    -0.1118660062D+01 EUMP2 =    -0.22760768632229D+03
 CCSD(T)
 CCSD(T)= -0.22755332041D+03

 The electronic state is 2-SG.
 Alpha  occ. eigenvalues --   -5.89862  -3.96982  -3.96982  -3.96889  -0.80126
 Alpha  occ. eigenvalues --   -0.79900  -0.79900  -0.79444  -0.79444  -0.46696
 Alpha  occ. eigenvalues --   -0.27535
 Alpha virt. eigenvalues --    0.01918   0.01918   0.02313   0.03292   0.06336
 Alpha virt. eigenvalues --    0.06336   0.06842   0.11908   0.13735   0.15339
 Alpha virt. eigenvalues --    0.15339   0.15465   0.15465   0.18468   0.20913

 Mulliken charges and spin densities:
               1          2
     1  Zn   0.261806   0.928600
     2  H   -0.261806   0.071400
 Sum of Mulliken charges =  -0.00000   1.00000

 Dipole moment (field-independent basis, Debye):
    X=              0.0000    Y=              0.0000    Z=              0.4927  Tot=              0.4927
 Quadrupole moment (field-independent basis, Debye-Ang):
   XX=            -14.5138   YY=            -14.5138   ZZ=            -20.9258
   XY=              0.0000   XZ=              0.0000   YZ=              0.0000

 \\#P ROCCSD(T)=(MaxCyc=150, Full)/Gen SCF=(maxcycle=400, vshift=200) P
 Normal termination of Gaussian 16 at Mon Apr 30 08:33:14 2018.
