 Gaussian 16, Revision A.03,
 Gaussian 16:  ES64L-G16RevA.03 25-Dec-2016

 ----------------------------------------------------------------------
 #P ROCCSD(T)=(MaxCyc=150, Full)/Gen SCF=(maxcycle=400, vshift=200) Pse
 udo=Read Integral(NoXCTest) Pop=Regular MaxDisk=500GB Guess=Read IOp(5
 /15=2)
 ----------------------------------------------------------------------

 ---
 ZnH
 ---
 Symbolic Z-matrix:
 Charge =  0 Multiplicity = 2

                         Standard orientation:
 ---------------------------------------------------------------------
 Center     Atomic      Atomic             Coordinates (Angstroms)
 Number     Number       Type             X           Y           Z
 ---------------------------------------------------------------------
      1         30           0        0.000000    0.000000    0.048387
      2          1           0        0.000000    0.000000   -1.451613
 ---------------------------------------------------------------------

 SCF Done:  E(ROHF) =  -226.487754223     A.U. after   17 cycles
 E2 =    -0.1037632103D+01 EUMP2 =    -0.22752538632635D+03
 CCSD(T)
 CCSD(T)= -0.22747382145D+03

 The electronic state is 2-SG.
 Alpha  occ. eigenvalues --   -5.89870  -3.96998  -3.96998  -3.96902  -0.80131
 Alpha  occ. eigenvalues --   -0.79906  -0.79906  -0.79447  -0.79447  -0.46698
 Alpha  occ. eigenvalues --   -0.27533
 Alpha virt. eigenvalues --    0.02105   0.02105   0.02844   0.03971   0.07714
 Alpha virt. eigenvalues --    0.07714   0.08863   0.15841   0.18574   0.24267
 Alpha virt. eigenvalues --    0.24267   0.25023   0.25023   0.25708   0.29252

 Mulliken charges and spin densities:
               1          2
     1  Zn   0.317398   0.941468
     2  H   -0.317398   0.058532
 Sum of Mulliken charges =  -0.00000   1.00000

 Dipole moment (field-independent basis, Debye):
    X=              0.0000    Y=              0.0000    Z=              0.4909  Tot=              0.4909
 Quadrupole moment (field-independent basis, Debye-Ang):
   XX=            -14.5183   YY=            -14.5183   ZZ=            -20.9270
   XY=              0.0000   XZ=              0.0000   YZ=              0.0000

 \\#P ROCCSD(T)=(MaxCyc=150, Full)/Gen SCF=(maxcycle=400, vshift=200) P
 CCSD(T)=-227.4738215\RMSD=6.428e-09\PG=C*V [C*(H1Zn1)]\\@
 Normal termination of Gaussian 16 at Sat Apr 21 10:27:17 2018.
