 Gaussian 16, Revision A.03,
 Gaussian 16:  ES64L-G16RevA.03 25-Dec-2016

 ----------------------------------------------------------------------
 #P ROCCSD(T)=(maxcyc=150, Full)/Gen 5d 7f SCF=(maxcycles=300) Integral
 (NoXCTest) MaxDisk=500GB Pop=Regular Pseudo=Read IOp(5/15=2) Guess=Rea
 d
 ----------------------------------------------------------------------

 ---
 ScH
 ---
 Symbolic Z-matrix:
 Charge =  0 Multiplicity = 1

                         Standard orientation:
 ---------------------------------------------------------------------
 Center     Atomic      Atomic             Coordinates (Angstroms)
 Number     Number       Type             X           Y           Z
 ---------------------------------------------------------------------
      1         21           0        0.000000    0.000000    0.050000
      2          1           0        0.000000    0.000000   -1.050000
 ---------------------------------------------------------------------

 SCF Done:  E(ROHF) =  -46.6038881483     A.U. after   13 cycles
 E2 =    -0.4214507601D+00 EUMP2 =    -0.47025338908435D+02
 CCSD(T)
 CCSD(T)= -0.47064526530D+02

 The electronic state is 1-SG.
 Alpha  occ. eigenvalues --   -2.66856  -1.63822  -1.56863  -1.56863  -0.47228
 Alpha  occ. eigenvalues --   -0.21338
 Alpha virt. eigenvalues --    0.01372   0.01394   0.01394   0.02283   0.03461
 Alpha virt. eigenvalues --    0.03913   0.03913   0.03956   0.03956   0.04800
 Alpha virt. eigenvalues --    0.04983   0.04983   0.09431   0.10844   0.10844

 Mulliken charges and spin densities:
               1          2
     1  Sc   0.531792   0.000000
     2  H   -0.531792   0.000000
 Sum of Mulliken charges =  -0.00000   0.00000

 Dipole moment (field-independent basis, Debye):
    X=              0.0000    Y=              0.0000    Z=              0.9484  Tot=              0.9484
 Quadrupole moment (field-independent basis, Debye-Ang):
   XX=            -23.6348   YY=            -23.6348   ZZ=            -22.1790
   XY=              0.0000   XZ=              0.0000   YZ=              0.0000

 P ROCCSD(T)=(maxcyc=150, Full)/Gen 5d 7f SCF=(maxcycles=300) Integral(
 PMP2-0=-47.0253389\MP4SDQ=-47.0474813\CCSD=-47.0471445\CCSD(T)=-47.064
 Normal termination of Gaussian 16 at Tue Feb 13 17:05:40 2018.
