 Gaussian 16, Revision A.03,
 Gaussian 16:  ES64L-G16RevA.03 25-Dec-2016

 ----------------------------------------------------------------------
 #P ROCCSD(T)=(maxcyc=150, Full)/Gen 5d 7f SCF=(maxcycles=300) Integral
 (NoXCTest) MaxDisk=500GB Pop=Regular Pseudo=Read
 ----------------------------------------------------------------------

 ---
 ScH
 ---
 Symbolic Z-matrix:
 Charge =  0 Multiplicity = 1

                         Standard orientation:
 ---------------------------------------------------------------------
 Center     Atomic      Atomic             Coordinates (Angstroms)
 Number     Number       Type             X           Y           Z
 ---------------------------------------------------------------------
      1         21           0        0.000000    0.000000    0.090909
      2          1           0        0.000000    0.000000   -1.909091
 ---------------------------------------------------------------------

 SCF Done:  E(ROHF) =  -46.6543634031     A.U. after   12 cycles
 E2 =    -0.4050335836D+00 EUMP2 =    -0.47059396986629D+02
 CCSD(T)
 CCSD(T)= -0.47107139753D+02

 The electronic state is 1-SG.
 Alpha  occ. eigenvalues --   -2.70637  -1.68258  -1.68258  -1.68065  -0.37991
 Alpha  occ. eigenvalues --   -0.23934
 Alpha virt. eigenvalues --    0.01020   0.01020   0.01325   0.02273   0.03581
 Alpha virt. eigenvalues --    0.03782   0.03782   0.03938   0.03938   0.04357
 Alpha virt. eigenvalues --    0.04357   0.04375   0.07502   0.07502   0.08532

 Mulliken charges and spin densities:
               1          2
     1  Sc   0.318484   0.000000
     2  H   -0.318484   0.000000
 Sum of Mulliken charges =  -0.00000   0.00000

 Dipole moment (field-independent basis, Debye):
    X=              0.0000    Y=              0.0000    Z=              2.1970  Tot=              2.1970
 Quadrupole moment (field-independent basis, Debye-Ang):
   XX=            -22.9287   YY=            -22.9287   ZZ=            -28.3476
   XY=              0.0000   XZ=              0.0000   YZ=              0.0000

 P ROCCSD(T)=(maxcyc=150, Full)/Gen 5d 7f SCF=(maxcycles=300) Integral(
 -47.0879976\CCSD=-47.0881369\CCSD(T)=-47.1071398\RMSD=7.958e-09\PG=C*V
 Normal termination of Gaussian 16 at Tue Feb 13 07:51:52 2018.
