 Gaussian 16, Revision A.03,
 Gaussian 16:  ES64L-G16RevA.03 25-Dec-2016

 ----------------------------------------------------------------------
 #P ROCCSD(T)=(MaxCyc=150, Full)/Gen SCF=(maxcycle=400, vshift=200) Pse
 udo=Read Integral(NoXCTest) Pop=Regular MaxDisk=500GB Guess=Read IOp(5
 /15=2)
 ----------------------------------------------------------------------

 ---
 CoO
 ---
 Symbolic Z-matrix:
 Charge =  0 Multiplicity = 4

                         Standard orientation:
 ---------------------------------------------------------------------
 Center     Atomic      Atomic             Coordinates (Angstroms)
 Number     Number       Type             X           Y           Z
 ---------------------------------------------------------------------
      1         27           0        0.000000    0.000000    0.365714
      2          8           0        0.000000    0.000000   -1.234286
 ---------------------------------------------------------------------

 SCF Done:  E(ROHF) =  -159.980689348     A.U. after   21 cycles
 E2 =    -0.1126431741D+01 EUMP2 =    -0.16110712108910D+03
 CCSD(T)
 CCSD(T)= -0.16112785471D+03

 Unable to determine electronic state:  partially filled degenerate orbitals.
 Alpha  occ. eigenvalues --   -4.83801  -3.25632  -3.25195  -3.25195  -1.17673
 Alpha  occ. eigenvalues --   -0.76570  -0.76570  -0.75280  -0.70277  -0.67441
 Alpha  occ. eigenvalues --   -0.38931  -0.38931  -0.36320
 Alpha virt. eigenvalues --   -0.04454   0.01884   0.01884   0.02118   0.03753
 Alpha virt. eigenvalues --    0.06816   0.06816   0.07082   0.07131   0.07139
 Alpha virt. eigenvalues --    0.08483   0.08483   0.12746   0.14508   0.21092

 Mulliken charges and spin densities:
               1          2
     1  Co   1.008544   2.899136
     2  O   -1.008544   0.100864
 Sum of Mulliken charges =  -0.00000   3.00000

 Dipole moment (field-independent basis, Debye):
    X=              0.0000    Y=              0.0000    Z=              7.6218  Tot=              7.6218
 Quadrupole moment (field-independent basis, Debye-Ang):
   XX=            -18.9477   YY=            -18.9477   ZZ=            -21.5189
   XY=              0.0000   XZ=              0.0000   YZ=              0.0000

 \\#P ROCCSD(T)=(MaxCyc=150, Full)/Gen SCF=(maxcycle=400, vshift=200) P
 \PMP2-0=-161.1071211\MP4SDQ=-161.0796546\CCSD=-161.0706657\CCSD(T)=-16
 Normal termination of Gaussian 16 at Thu May  3 17:52:48 2018.
