 Gaussian 16, Revision A.03,
 Gaussian 16:  ES64L-G16RevA.03 25-Dec-2016

 ----------------------------------------------------------------------
 #P ROCCSD(T)=(MaxCyc=150, Full)/Gen SCF=(maxcycle=400, vshift=200) Pse
 udo=Read Integral(NoXCTest) Pop=Regular MaxDisk=500GB Guess=Read IOp(5
 /15=2)
 ----------------------------------------------------------------------

 ---
 CoO
 ---
 Symbolic Z-matrix:
 Charge =  0 Multiplicity = 4

                         Standard orientation:
 ---------------------------------------------------------------------
 Center     Atomic      Atomic             Coordinates (Angstroms)
 Number     Number       Type             X           Y           Z
 ---------------------------------------------------------------------
      1         27           0        0.000000    0.000000    0.365714
      2          8           0        0.000000    0.000000   -1.234286
 ---------------------------------------------------------------------

 SCF Done:  E(ROHF) =  -159.977309351     A.U. after   23 cycles
 E2 =    -0.1074518279D+01 EUMP2 =    -0.16105182763073D+03
 CCSD(T)
 CCSD(T)= -0.16107521909D+03

 Unable to determine electronic state:  partially filled degenerate orbitals.
 Alpha  occ. eigenvalues --   -4.83825  -3.25663  -3.25223  -3.25223  -1.17718
 Alpha  occ. eigenvalues --   -0.76575  -0.76575  -0.75286  -0.70281  -0.67451
 Alpha  occ. eigenvalues --   -0.38924  -0.38924  -0.36337
 Alpha virt. eigenvalues --   -0.04462   0.02196   0.02196   0.02374   0.04168
 Alpha virt. eigenvalues --    0.07946   0.07946   0.09879   0.10838   0.10866
 Alpha virt. eigenvalues --    0.11740   0.11740   0.14980   0.15512   0.26160

 Mulliken charges and spin densities:
               1          2
     1  Co   1.060680   2.898342
     2  O   -1.060680   0.101658
 Sum of Mulliken charges =  -0.00000   3.00000

 Dipole moment (field-independent basis, Debye):
    X=              0.0000    Y=              0.0000    Z=              7.6329  Tot=              7.6329
 Quadrupole moment (field-independent basis, Debye-Ang):
   XX=            -18.9507   YY=            -18.9507   ZZ=            -21.5375
   XY=              0.0000   XZ=              0.0000   YZ=              0.0000

 \\#P ROCCSD(T)=(MaxCyc=150, Full)/Gen SCF=(maxcycle=400, vshift=200) P
 \PMP2-0=-161.0518276\MP4SDQ=-161.0300906\CCSD=-161.020311\CCSD(T)=-161
 Normal termination of Gaussian 16 at Thu May  3 15:36:37 2018.
