 Gaussian 16, Revision A.03,
 Gaussian 16:  ES64L-G16RevA.03 25-Dec-2016

 ----------------------------------------------------------------------
 #P ROCCSD(T)=(maxcyc=150, Full)/Gen 5d 7f SCF=(maxcycles=300) Integral
 (NoXCTest, DKHSO) MaxDisk=500GB Pop=Regular IOp(5/15=2) Guess=Read
 ----------------------------------------------------------------------

 ---
 ScH
 ---
 Symbolic Z-matrix:
 Charge =  0 Multiplicity = 1

                         Standard orientation:
 ---------------------------------------------------------------------
 Center     Atomic      Atomic             Coordinates (Angstroms)
 Number     Number       Type             X           Y           Z
 ---------------------------------------------------------------------
      1         21           0        0.000000    0.000000    0.054545
      2          1           0        0.000000    0.000000   -1.145455
 ---------------------------------------------------------------------

 SCF Done:  E(ROHF) =  -763.713239769     A.U. after   12 cycles
 E2 =    -0.7668500482D+00 EUMP2 =    -0.76448008981768D+03
 CCSD(T)
 CCSD(T)= -0.76451219101D+03

 The electronic state is 1-SG.
 Alpha  occ. eigenvalues -- -166.82864 -19.27135 -15.69557 -15.69557 -15.68894
 Alpha  occ. eigenvalues --   -2.61154  -1.63061  -1.58553  -1.58553  -0.46870
 Alpha  occ. eigenvalues --   -0.21477
 Alpha virt. eigenvalues --    0.01380   0.01380   0.01493   0.02227   0.03471
 Alpha virt. eigenvalues --    0.03912   0.03912   0.03948   0.03948   0.04937
 Alpha virt. eigenvalues --    0.04942   0.04942   0.09316   0.10652   0.10652

 Mulliken charges and spin densities:
               1          2
     1  Sc   0.506644   0.000000
     2  H   -0.506644   0.000000
 Sum of Mulliken charges =  -0.00000   0.00000

 Dipole moment (field-independent basis, Debye):
    X=              0.0000    Y=              0.0000    Z=              0.6944  Tot=              0.6944
 Quadrupole moment (field-independent basis, Debye-Ang):
   XX=            -24.0918   YY=            -24.0918   ZZ=            -23.0502
   XY=              0.0000   XZ=              0.0000   YZ=              0.0000

 P ROCCSD(T)=(maxcyc=150, Full)/Gen 5d 7f SCF=(maxcycles=300) Integral(
 MP2-0=-764.4800898\MP4SDQ=-764.4946645\CCSD=-764.4942257\CCSD(T)=-764.
 Normal termination of Gaussian 16 at Mon Feb 12 20:14:52 2018.
