 Gaussian 16, Revision A.03,
 Gaussian 16:  ES64L-G16RevA.03 25-Dec-2016

 ----------------------------------------------------------------------
 #P ROCCSD(T)=(maxcyc=150, FrzINGC)/Gen 5d 7f SCF=(maxcycles=300) Integ
 ral(NoXCTest, DKHSO) MaxDisk=500GB Pop=Regular IOp(5/15=2) Guess=Read
 ----------------------------------------------------------------------

 ---
 ScH
 ---
 Symbolic Z-matrix:
 Charge =  0 Multiplicity = 1

                         Standard orientation:
 ---------------------------------------------------------------------
 Center     Atomic      Atomic             Coordinates (Angstroms)
 Number     Number       Type             X           Y           Z
 ---------------------------------------------------------------------
      1         21           0        0.000000    0.000000    0.068182
      2          1           0        0.000000    0.000000   -1.431818
 ---------------------------------------------------------------------

 SCF Done:  E(ROHF) =  -763.813556243     A.U. after   11 cycles
 E2 =    -0.3992357759D+00 EUMP2 =    -0.76421279201854D+03
 CCSD(T)
 CCSD(T)= -0.76425225043D+03

 The electronic state is 1-SG.
 Alpha  occ. eigenvalues -- -166.88155 -19.33355 -15.75702 -15.75702 -15.74994
 Alpha  occ. eigenvalues --   -2.65255  -1.63870  -1.62913  -1.62913  -0.44236
 Alpha  occ. eigenvalues --   -0.22276
 Alpha virt. eigenvalues --    0.01228   0.01228   0.01589   0.01894   0.02878
 Alpha virt. eigenvalues --    0.02878   0.02901   0.02901   0.02914   0.04277
 Alpha virt. eigenvalues --    0.04277   0.04500   0.07860   0.07891   0.07891

 Mulliken charges and spin densities:
               1          2
     1  Sc   0.280892   0.000000
     2  H   -0.280892   0.000000
 Sum of Mulliken charges =  -0.00000   0.00000

 Dipole moment (field-independent basis, Debye):
    X=              0.0000    Y=             -0.0000    Z=              0.7120  Tot=              0.7120
 Quadrupole moment (field-independent basis, Debye-Ang):
   XX=            -23.7664   YY=            -23.7664   ZZ=            -25.1302
   XY=              0.0000   XZ=              0.0000   YZ=             -0.0000

  ROCCSD(T)=(maxcyc=150, FrzINGC)/Gen 5d 7f SCF=(maxcycles=300) Integra
 PMP2-0=-764.212792\MP4SDQ=-764.2352188\CCSD=-764.2352958\CCSD(T)=-764.
 Normal termination of Gaussian 16 at Tue Feb 13 19:40:35 2018.
