 Gaussian 16, Revision A.03,
 Gaussian 16:  ES64L-G16RevA.03 25-Dec-2016

 ----------------------------------------------------------------------
 #P ROHF/Gen 5d 7f SCF=(maxcycles=300, NoVarAcc, VShift=300) Integral(N
 oXCTest) MaxDisk=100GB Pop=Regular IOp(5/15=2)
 ----------------------------------------------------------------------

 --
 Cr
 --
 Symbolic Z-matrix:
 Charge =  0 Multiplicity = 7

                         Standard orientation:
 ---------------------------------------------------------------------
 Center     Atomic      Atomic             Coordinates (Angstroms)
 Number     Number       Type             X           Y           Z
 ---------------------------------------------------------------------
      1         24           0        0.000000    0.000000    0.000000
 ---------------------------------------------------------------------

 SCF Done:  E(ROHF) =  -1043.35635618     A.U. after   43 cycles

 The electronic state is 7-A1G.
 Alpha  occ. eigenvalues -- -220.38588 -26.19256 -22.12315 -22.12315 -22.12315
 Alpha  occ. eigenvalues --   -3.22725  -1.98068  -1.98068  -1.98068  -0.05238
 Alpha  occ. eigenvalues --    0.03038   0.03038   0.03038   0.03038   0.03038
 Alpha virt. eigenvalues --    0.02073   0.02073   0.02073   0.02419   0.05147
 Alpha virt. eigenvalues --    0.05147   0.05147   0.05147   0.05147   0.06767
 Alpha virt. eigenvalues --    0.06767   0.06767   0.12005   0.16711   0.16711

 Mulliken charges and spin densities:
               1          2
     1  Cr  -0.000000   6.000000
 Sum of Mulliken charges =  -0.00000   6.00000

 Dipole moment (field-independent basis, Debye):
    X=              0.0000    Y=              0.0000    Z=              0.0000  Tot=              0.0000
 Quadrupole moment (field-independent basis, Debye-Ang):
   XX=            -16.8837   YY=            -16.8837   ZZ=            -16.8837
   XY=             -0.0000   XZ=             -0.0000   YZ=              0.0000

 Normal termination of Gaussian 16 at Tue Apr 10 16:16:39 2018.
