 Gaussian 16, Revision A.03,
 Gaussian 16:  ES64L-G16RevA.03 25-Dec-2016

 ----------------------------------------------------------------------
 #P ROCCSD(T)=(maxcyc=150, Full)/Gen 5d 7f SCF=(maxcycles=300) Integral
 (NoXCTest) MaxDisk=500GB Pop=Regular Pseudo=Read IOp(5/15=2) Guess=Rea
 d
 ----------------------------------------------------------------------

 ---
 ScH
 ---
 Symbolic Z-matrix:
 Charge =  0 Multiplicity = 1

                         Standard orientation:
 ---------------------------------------------------------------------
 Center     Atomic      Atomic             Coordinates (Angstroms)
 Number     Number       Type             X           Y           Z
 ---------------------------------------------------------------------
      1         21           0        0.000000    0.000000    0.045455
      2          1           0        0.000000    0.000000   -0.954545
 ---------------------------------------------------------------------

 SCF Done:  E(ROHF) =  -46.3245248182     A.U. after    9 cycles
 E2 =    -0.4402721436D+00 EUMP2 =    -0.46764796961863D+02
 CCSD(T)
 CCSD(T)= -0.46799311537D+02

 The electronic state is 1-SG.
 Alpha  occ. eigenvalues --   -2.61227  -1.66965  -1.56631  -1.56631  -0.47753
 Alpha  occ. eigenvalues --   -0.21285
 Alpha virt. eigenvalues --    0.01184   0.01341   0.01341   0.01716   0.02606
 Alpha virt. eigenvalues --    0.02606   0.02618   0.02643   0.02643   0.04017
 Alpha virt. eigenvalues --    0.04457   0.04457   0.07190   0.07422   0.07422

 Mulliken charges and spin densities:
               1          2
     1  Sc   0.167472   0.000000
     2  H   -0.167472   0.000000
 Sum of Mulliken charges =  -0.00000   0.00000

 Dipole moment (field-independent basis, Debye):
    X=              0.0000    Y=              0.0000    Z=              1.2877  Tot=              1.2877
 Quadrupole moment (field-independent basis, Debye-Ang):
   XX=            -23.5445   YY=            -23.5445   ZZ=            -22.1125
   XY=              0.0000   XZ=              0.0000   YZ=              0.0000

 P ROCCSD(T)=(maxcyc=150, Full)/Gen 5d 7f SCF=(maxcycles=300) Integral(
 P2-0=-46.764797\MP4SDQ=-46.781203\CCSD=-46.7810851\CCSD(T)=-46.7993115
 Normal termination of Gaussian 16 at Tue Feb 13 16:54:58 2018.
