 Gaussian 16, Revision A.03,
 Gaussian 16:  ES64L-G16RevA.03 25-Dec-2016

 ----------------------------------------------------------------------
 #P ROCCSD(T)=(maxcyc=150, Full, SaveAmplitudes, ReadAmplitudes)/Gen 5d
  7f SCF=(maxcycles=300) Integral(NoXCTest) MaxDisk=500GB Pop=Regular P
 seudo=Read Guess=Read
 ----------------------------------------------------------------------

 ---
 CrO
 ---
 Symbolic Z-matrix:
 Charge =  0 Multiplicity = 5

                         Standard orientation:
 ---------------------------------------------------------------------
 Center     Atomic      Atomic             Coordinates (Angstroms)
 Number     Number       Type             X           Y           Z
 ---------------------------------------------------------------------
      1         24           0        0.000000    0.000000    0.300000
      2          8           0        0.000000    0.000000   -0.900000
 ---------------------------------------------------------------------

 SCF Done:  E(ROHF) =  -101.584651535     A.U. after   25 cycles
 E2 =    -0.9226277068D+00 EUMP2 =    -0.10250727924224D+03
 CCSD(T)
 CCSD(T)= -0.10251109711D+03

 Unable to determine electronic state:  an orbital has unidentified symmetry.
 Alpha  occ. eigenvalues --   -3.75758  -2.52105  -2.47653  -2.43904  -1.25840
 Alpha  occ. eigenvalues --   -0.75097  -0.69030  -0.65507  -0.50429  -0.50337
 Alpha  occ. eigenvalues --   -0.30279  -0.26235
 Alpha virt. eigenvalues --    0.01396   0.02089   0.02570   0.02572   0.04856
 Alpha virt. eigenvalues --    0.05040   0.05465   0.05470   0.05508   0.05612
 Alpha virt. eigenvalues --    0.08662   0.08724   0.10307   0.13945   0.14998

 Mulliken charges and spin densities:
               1          2
     1  Cr   0.775705   3.865286
     2  O   -0.775705   0.134714
 Sum of Mulliken charges =  -0.00000   4.00000

 Dipole moment (field-independent basis, Debye):
    X=              0.0000    Y=              0.0000    Z=              0.2416  Tot=              0.2416
 Quadrupole moment (field-independent basis, Debye-Ang):
   XX=            -22.8479   YY=            -19.9957   ZZ=            -22.8843
   XY=              0.0000   XZ=              0.0000   YZ=              0.0000

 \\#P ROCCSD(T)=(maxcyc=150, Full, SaveAmplitudes, ReadAmplitudes)/Gen
 MP2-0=-102.5072792\CCSD=-102.4702788\CCSD(T)=-102.5110971\RMSD=2.675e-
 Normal termination of Gaussian 16 at Mon Mar 12 16:02:46 2018.
