 Gaussian 16, Revision A.03,
 Gaussian 16:  ES64L-G16RevA.03 25-Dec-2016

 ----------------------------------------------------------------------
 #P ROCCSD(T)=(MaxCyc=150, Full)/Gen SCF=(maxcycle=400) Pseudo=Read Int
 egral(NoXCTest) Pop=Regular MaxDisk=500GB Guess=Read IOp(5/15=2)
 ----------------------------------------------------------------------

 ---
 CuO
 ---
 Symbolic Z-matrix:
 Charge =  0 Multiplicity = 2

                         Standard orientation:
 ---------------------------------------------------------------------
 Center     Atomic      Atomic             Coordinates (Angstroms)
 Number     Number       Type             X           Y           Z
 ---------------------------------------------------------------------
      1         29           0        0.000000    0.000000    0.410811
      2          8           0        0.000000    0.000000   -1.489189
 ---------------------------------------------------------------------

 SCF Done:  E(ROHF) =  -212.244203068     A.U. after   17 cycles
 E2 =    -0.1321869436D+01 EUMP2 =    -0.21356607250323D+03
 CCSD(T)
 CCSD(T)= -0.21350317358D+03

 Unable to determine electronic state:  an orbital has unidentified symmetry.
 Alpha  occ. eigenvalues --   -5.27060  -3.53956  -3.53955  -3.53819  -1.20207
 Alpha  occ. eigenvalues --   -0.55111  -0.53105  -0.52663  -0.52086  -0.52086
 Alpha  occ. eigenvalues --   -0.48374  -0.41260  -0.40777
 Alpha virt. eigenvalues --   -0.01785   0.02415   0.02541   0.03331   0.04334
 Alpha virt. eigenvalues --    0.08534   0.08750   0.11385   0.13144   0.13149
 Alpha virt. eigenvalues --    0.14556   0.14606   0.15079   0.18706   0.21259

 Mulliken charges and spin densities:
               1          2
     1  Cu   0.741983   0.010049
     2  O   -0.741983   0.989951
 Sum of Mulliken charges =  -0.00000   1.00000

 Dipole moment (field-independent basis, Debye):
    X=              0.0000    Y=              0.0000    Z=              6.3748  Tot=              6.3748
 Quadrupole moment (field-independent basis, Debye-Ang):
   XX=            -15.4346   YY=            -16.9991   ZZ=            -21.7531
   XY=              0.0000   XZ=              0.0000   YZ=              0.0000

 \\#P ROCCSD(T)=(MaxCyc=150, Full)/Gen SCF=(maxcycle=400) Pseudo=Read I
 5660725\MP4SDQ=-213.5220022\CCSD=-213.4573929\CCSD(T)=-213.5031736\RMS
 Normal termination of Gaussian 16 at Mon Mar 26 13:00:28 2018.
