 Gaussian 16, Revision A.03,
 Gaussian 16:  ES64L-G16RevA.03 25-Dec-2016

 ----------------------------------------------------------------------
 #P ROCCSD(T)=(MaxCyc=150, Full)/Gen SCF=(maxcycle=400) Pseudo=Read Int
 egral(NoXCTest) Pop=Regular MaxDisk=500GB Guess=Read IOp(5/15=2)
 ----------------------------------------------------------------------

 ---
 CuO
 ---
 Symbolic Z-matrix:
 Charge =  0 Multiplicity = 2

                         Standard orientation:
 ---------------------------------------------------------------------
 Center     Atomic      Atomic             Coordinates (Angstroms)
 Number     Number       Type             X           Y           Z
 ---------------------------------------------------------------------
      1         29           0        0.000000    0.000000    0.410811
      2          8           0        0.000000    0.000000   -1.489189
 ---------------------------------------------------------------------

 SCF Done:  E(ROHF) =  -212.229375295     A.U. after   20 cycles
 E2 =    -0.1258349297D+01 EUMP2 =    -0.21348772459203D+03
 CCSD(T)
 CCSD(T)= -0.21342756490D+03

 Unable to determine electronic state:  an orbital has unidentified symmetry.
 Alpha  occ. eigenvalues --   -5.27351  -3.54150  -3.54145  -3.54007  -1.20232
 Alpha  occ. eigenvalues --   -0.55108  -0.53097  -0.52662  -0.52072  -0.52072
 Alpha  occ. eigenvalues --   -0.48369  -0.41263  -0.40784
 Alpha virt. eigenvalues --   -0.01790   0.02702   0.02855   0.03776   0.04565
 Alpha virt. eigenvalues --    0.09961   0.10239   0.13434   0.19218   0.19227
 Alpha virt. eigenvalues --    0.19435   0.20112   0.21569   0.22646   0.25945

 Mulliken charges and spin densities:
               1          2
     1  Cu   0.792338   0.010787
     2  O   -0.792338   0.989213
 Sum of Mulliken charges =   0.00000   1.00000

 Dipole moment (field-independent basis, Debye):
    X=              0.0000    Y=              0.0000    Z=              6.3886  Tot=              6.3886
 Quadrupole moment (field-independent basis, Debye-Ang):
   XX=            -15.4430   YY=            -17.0243   ZZ=            -21.7401
   XY=              0.0000   XZ=              0.0000   YZ=              0.0000

 \\#P ROCCSD(T)=(MaxCyc=150, Full)/Gen SCF=(maxcycle=400) Pseudo=Read I
 .4877246\MP4SDQ=-213.4493729\CCSD=-213.384208\CCSD(T)=-213.4275649\RMS
 Normal termination of Gaussian 16 at Mon Mar 26 10:30:40 2018.
