 Gaussian 16, Revision A.03,
 Gaussian 16:  ES64L-G16RevA.03 25-Dec-2016

 ----------------------------------------------------------------------
 #P ROCCSD(T)=(maxcyc=150, Window=(7,0), SaveAmplitudes, ReadAmplitudes
 )/Gen 5d 7f SCF=(maxcycles=300) Integral(NoXCTest, DKHSO) MaxDisk=500G
 B Pop=Regular Guess=Read
 ----------------------------------------------------------------------

 ---
 ScO
 ---
 Symbolic Z-matrix:
 Charge =  0 Multiplicity = 2

                         Standard orientation:
 ---------------------------------------------------------------------
 Center     Atomic      Atomic             Coordinates (Angstroms)
 Number     Number       Type             X           Y           Z
 ---------------------------------------------------------------------
      1         21           0        0.000000    0.000000    0.468966
      2          8           0        0.000000    0.000000   -1.231034
 ---------------------------------------------------------------------

 SCF Done:  E(ROHF) =  -838.276963974     A.U. after   17 cycles
 E2 =    -0.6839867091D+00 EUMP2 =    -0.83896095068282D+03
 CCSD(T)
 CCSD(T)= -0.83898575547D+03

 The electronic state is 2-SG.
 Alpha  occ. eigenvalues -- -166.88019 -20.48106 -19.33020 -15.75255 -15.75255
 Alpha  occ. eigenvalues --  -15.75122  -2.65057  -1.66040  -1.63173  -1.63173
 Alpha  occ. eigenvalues --   -1.11219  -0.42667  -0.41012  -0.41012  -0.25286
 Alpha virt. eigenvalues --   -0.00049  -0.00049   0.01311   0.02036   0.02700
 Alpha virt. eigenvalues --    0.02700   0.02977   0.02977   0.03231   0.03231
 Alpha virt. eigenvalues --    0.03456   0.04625   0.06795   0.06795   0.09310

 Mulliken charges and spin densities:
               1          2
     1  Sc   1.270454   0.986869
     2  O   -1.270454   0.013131
 Sum of Mulliken charges =  -0.00000   1.00000

 Dipole moment (field-independent basis, Debye):
    X=              0.0000    Y=              0.0000    Z=              4.8722  Tot=              4.8722
 Quadrupole moment (field-independent basis, Debye-Ang):
   XX=            -22.3315   YY=            -22.3315   ZZ=            -33.1116
   XY=              0.0000   XZ=              0.0000   YZ=             -0.0000

 1\1\GINC-C483-114\SP\ROCCSD(T)-RW\Gen\O1Sc1(2)\AANNABE\20-Feb-2018\0\\
 #P ROCCSD(T)=(maxcyc=150, Window=(7,0), SaveAmplitudes, ReadAmplitudes
 )/Gen 5d 7f SCF=(maxcycles=300) Integral(NoXCTest, DKHSO) MaxDisk=500G
 B Pop=Regular Guess=Read\\ScO\\0,2\Sc,0,0.,0.,0.\O,0,0.,0.,1.7\\Versio
 n=ES64L-G16RevA.03\State=2-SG\HF=-838.276964\MP2=-838.9609507\PUHF=-83
 8.276964\PMP2-0=-838.9609507\CCSD=-838.94541\CCSD(T)=-838.9857555\RMSD
 =3.250e-10\PG=C*V [C*(O1Sc1)]\\@

 Normal termination of Gaussian 16 at Tue Feb 20 20:22:42 2018.
