 Gaussian 16, Revision A.03,
 Gaussian 16:  ES64L-G16RevA.03 25-Dec-2016

 ----------------------------------------------------------------------
 #P ROCCSD(T)=(maxcyc=150, Full, SaveAmplitudes, ReadAmplitudes)/Gen 5d
  7f SCF=(maxcycles=300) Integral(NoXCTest) MaxDisk=500GB Pop=Regular P
 seudo=Read Guess=Read
 ----------------------------------------------------------------------

 ---
 MnH
 ---
 Symbolic Z-matrix:
 Charge =  0 Multiplicity = 7

                         Standard orientation:
 ---------------------------------------------------------------------
 Center     Atomic      Atomic             Coordinates (Angstroms)
 Number     Number       Type             X           Y           Z
 ---------------------------------------------------------------------
      1         25           0        0.000000    0.000000    0.053846
      2          1           0        0.000000    0.000000   -1.346154
 ---------------------------------------------------------------------

 SCF Done:  E(ROHF) =  -104.030749621     A.U. after   23 cycles
 E2 =    -0.6075067453D+00 EUMP2 =    -0.10463825636640D+03
 CCSD(T)
 CCSD(T)= -0.10465839843D+03

 The electronic state is 7-SG.
 Alpha  occ. eigenvalues --   -4.23439  -2.79028  -2.78858  -2.78858  -0.65488
 Alpha  occ. eigenvalues --   -0.63670  -0.63670  -0.63235  -0.63235  -0.41892
 Alpha  occ. eigenvalues --   -0.24851
 Alpha virt. eigenvalues --    0.01300   0.01300   0.02015   0.03072   0.05150
 Alpha virt. eigenvalues --    0.05150   0.05696   0.05829   0.05829   0.06184
 Alpha virt. eigenvalues --    0.06184   0.08526   0.13931   0.14768   0.17965

 Mulliken charges and spin densities:
               1          2
     1  Mn   0.472602   5.936704
     2  H   -0.472602   0.063296
 Sum of Mulliken charges =  -0.00000   6.00000

 Dipole moment (field-independent basis, Debye):
    X=              0.0000    Y=              0.0000    Z=              0.2886  Tot=              0.2886
 Quadrupole moment (field-independent basis, Debye-Ang):
   XX=            -16.0111   YY=            -16.0111   ZZ=            -25.4935
   XY=              0.0000   XZ=              0.0000   YZ=              0.0000

 \\#P ROCCSD(T)=(maxcyc=150, Full, SaveAmplitudes, ReadAmplitudes)/Gen
 4.0307496\PMP2-0=-104.6382564\CCSD=-104.6413036\CCSD(T)=-104.6583984\R
 Normal termination of Gaussian 16 at Mon Feb 26 04:06:43 2018.
