 Gaussian 16, Revision A.03,
 Gaussian 16:  ES64L-G16RevA.03 25-Dec-2016

 ----------------------------------------------------------------------
 #P ROCCSD(T)=(maxcyc=150, Full, SaveAmplitudes, ReadAmplitudes)/Gen 5d
  7f SCF=(maxcycles=300, VShift=400) Integral(NoXCTest) MaxDisk=500GB P
 op=Full Pseudo=Read Guess=Read IOp(5/15=2)
 ----------------------------------------------------------------------

 ---
 MnO
 ---
 Symbolic Z-matrix:
 Charge =  0 Multiplicity = 6

                         Standard orientation:
 ---------------------------------------------------------------------
 Center     Atomic      Atomic             Coordinates (Angstroms)
 Number     Number       Type             X           Y           Z
 ---------------------------------------------------------------------
      1         25           0        0.000000    0.000000    0.387879
      2          8           0        0.000000    0.000000   -1.212121
 ---------------------------------------------------------------------

 SCF Done:  E(ROHF) =  -118.890924318     A.U. after   35 cycles
 E2 =    -0.9105469160D+00 EUMP2 =    -0.11980147123373D+03
 CCSD(T)
 CCSD(T)= -0.11982823987D+03

 The electronic state is 6-SG.
 Alpha  occ. eigenvalues --   -4.12543  -2.74744  -2.74744  -2.73895  -1.14584
 Alpha  occ. eigenvalues --   -0.64625  -0.64625  -0.62741  -0.62741  -0.56790
 Alpha  occ. eigenvalues --   -0.35130  -0.35130  -0.34017
 Alpha virt. eigenvalues --   -0.03266   0.01790   0.01790   0.02289   0.03835
 Alpha virt. eigenvalues --    0.06927   0.06927   0.08320   0.08554   0.08554
 Alpha virt. eigenvalues --    0.09677   0.09677   0.13726   0.13928   0.23375

 Mulliken charges and spin densities:
               1          2
     1  Mn   1.135042   4.851501
     2  O   -1.135042   0.148499
 Sum of Mulliken charges =  -0.00000   5.00000

 Dipole moment (field-independent basis, Debye):
    X=              0.0000    Y=              0.0000    Z=              8.2542  Tot=              8.2542
 Quadrupole moment (field-independent basis, Debye-Ang):
   XX=            -18.8258   YY=            -18.8258   ZZ=            -23.0441
   XY=              0.0000   XZ=              0.0000   YZ=              0.0000

 \\#P ROCCSD(T)=(maxcyc=150, Full, SaveAmplitudes, ReadAmplitudes)/Gen
 4SDQ=-119.7963243\CCSD=-119.7864625\CCSD(T)=-119.8282399\RMSD=9.927e-0
 Normal termination of Gaussian 16 at Thu Apr 19 08:18:38 2018.
