 Gaussian 16, Revision A.03,
 Gaussian 16:  ES64L-G16RevA.03 25-Dec-2016

 ----------------------------------------------------------------------
 #P ROCCSD(T)=(maxcyc=150, Full)/Gen 5d 7f SCF=(maxcycles=300) Integral
 (NoXCTest) MaxDisk=500GB Pop=Regular Pseudo=Read IOp(5/15=2) Guess=Rea
 d
 ----------------------------------------------------------------------

 ---
 ScH
 ---
 Symbolic Z-matrix:
 Charge =  0 Multiplicity = 1

                         Standard orientation:
 ---------------------------------------------------------------------
 Center     Atomic      Atomic             Coordinates (Angstroms)
 Number     Number       Type             X           Y           Z
 ---------------------------------------------------------------------
      1         21           0        0.000000    0.000000    0.059091
      2          1           0        0.000000    0.000000   -1.240909
 ---------------------------------------------------------------------

 SCF Done:  E(ROHF) =  -46.5279728208     A.U. after    9 cycles
 E2 =    -0.4386972452D+00 EUMP2 =    -0.46966670065954D+02
 CCSD(T)
 CCSD(T)= -0.47002635152D+02

 The electronic state is 1-SG.
 Alpha  occ. eigenvalues --   -2.63532  -1.63458  -1.60498  -1.60498  -0.46181
 Alpha  occ. eigenvalues --   -0.21670
 Alpha virt. eigenvalues --    0.01296   0.01296   0.01403   0.01672   0.02613
 Alpha virt. eigenvalues --    0.02613   0.02635   0.02635   0.02636   0.04091
 Alpha virt. eigenvalues --    0.04367   0.04367   0.07015   0.07410   0.07410

 Mulliken charges and spin densities:
               1          2
     1  Sc   0.351736   0.000000
     2  H   -0.351736   0.000000
 Sum of Mulliken charges =   0.00000   0.00000

 Dipole moment (field-independent basis, Debye):
    X=              0.0000    Y=              0.0000    Z=              0.6861  Tot=              0.6861
 Quadrupole moment (field-independent basis, Debye-Ang):
   XX=            -23.6201   YY=            -23.6201   ZZ=            -23.1338
   XY=              0.0000   XZ=              0.0000   YZ=              0.0000

 P ROCCSD(T)=(maxcyc=150, Full)/Gen 5d 7f SCF=(maxcycles=300) Integral(
 PMP2-0=-46.9666701\MP4SDQ=-46.984171\CCSD=-46.9837114\CCSD(T)=-47.0026
 Normal termination of Gaussian 16 at Tue Feb 13 21:53:39 2018.
