 Gaussian 16, Revision A.03,
 Gaussian 16:  ES64L-G16RevA.03 25-Dec-2016

 ----------------------------------------------------------------------
 #P ROCCSD(T)=(maxcyc=150, Full, SaveAmplitudes, ReadAmplitudes)/Gen 5d
  7f SCF=(maxcycles=300) Integral(NoXCTest) MaxDisk=500GB Pop=Regular P
 seudo=Read Guess=Read IOp(5/15=2)
 ----------------------------------------------------------------------

 ---
 MnH
 ---
 Symbolic Z-matrix:
 Charge =  0 Multiplicity = 7

                         Standard orientation:
 ---------------------------------------------------------------------
 Center     Atomic      Atomic             Coordinates (Angstroms)
 Number     Number       Type             X           Y           Z
 ---------------------------------------------------------------------
      1         25           0        0.000000    0.000000    0.053846
      2          1           0        0.000000    0.000000   -1.346154
 ---------------------------------------------------------------------

 SCF Done:  E(ROHF) =  -104.215243119     A.U. after   27 cycles
 E2 =    -0.5966485599D+00 EUMP2 =    -0.10481189167877D+03
 CCSD(T)
 CCSD(T)= -0.10483402234D+03

 The electronic state is 7-SG.
 Alpha  occ. eigenvalues --   -4.09130  -2.75454  -2.75122  -2.75122  -0.65069
 Alpha  occ. eigenvalues --   -0.63204  -0.63204  -0.62776  -0.62776  -0.41868
 Alpha  occ. eigenvalues --   -0.25092
 Alpha virt. eigenvalues --    0.01342   0.01342   0.02207   0.03225   0.05788
 Alpha virt. eigenvalues --    0.05788   0.08525   0.08525   0.08550   0.08971
 Alpha virt. eigenvalues --    0.08971   0.09226   0.14151   0.21142   0.22601

 Mulliken charges and spin densities:
               1          2
     1  Mn   0.447059   5.954530
     2  H   -0.447059   0.045470
 Sum of Mulliken charges =  -0.00000   6.00000

 Dipole moment (field-independent basis, Debye):
    X=              0.0000    Y=              0.0000    Z=              0.3036  Tot=              0.3036
 Quadrupole moment (field-independent basis, Debye-Ang):
   XX=            -15.8639   YY=            -15.8639   ZZ=            -25.2409
   XY=              0.0000   XZ=              0.0000   YZ=              0.0000

 \\#P ROCCSD(T)=(maxcyc=150, Full, SaveAmplitudes, ReadAmplitudes)/Gen
 .816438\CCSD=-104.8172477\CCSD(T)=-104.8340223\RMSD=8.097e-09\PG=C*V [
 Normal termination of Gaussian 16 at Mon Feb 26 03:32:30 2018.
