 Gaussian 16, Revision A.03,
 Gaussian 16:  ES64L-G16RevA.03 25-Dec-2016

 ----------------------------------------------------------------------
 #P ROCCSD(T)=(maxcyc=150, Full, SaveAmplitudes, ReadAmplitudes)/Gen 5d
  7f SCF=(maxcycles=300) Integral(NoXCTest) MaxDisk=500GB Pop=Regular P
 seudo=Read Guess=Read
 ----------------------------------------------------------------------

 ---
 CrO
 ---
 Symbolic Z-matrix:
 Charge =  0 Multiplicity = 5

                         Standard orientation:
 ---------------------------------------------------------------------
 Center     Atomic      Atomic             Coordinates (Angstroms)
 Number     Number       Type             X           Y           Z
 ---------------------------------------------------------------------
      1         24           0        0.000000    0.000000    0.300000
      2          8           0        0.000000    0.000000   -0.900000
 ---------------------------------------------------------------------

 SCF Done:  E(ROHF) =  -101.601875733     A.U. after   24 cycles
 E2 =    -0.9210454904D+00 EUMP2 =    -0.10252292122324D+03
 CCSD(T)
 CCSD(T)= -0.10252700089D+03

 Unable to determine electronic state:  an orbital has unidentified symmetry.
 Alpha  occ. eigenvalues --   -3.74105  -2.51550  -2.47124  -2.43413  -1.26824
 Alpha  occ. eigenvalues --   -0.75000  -0.69053  -0.65582  -0.50373  -0.50283
 Alpha  occ. eigenvalues --   -0.30139  -0.26414
 Alpha virt. eigenvalues --    0.01394   0.02085   0.02566   0.02584   0.04846
 Alpha virt. eigenvalues --    0.05039   0.05467   0.05472   0.05511   0.05608
 Alpha virt. eigenvalues --    0.08647   0.08783   0.10273   0.13933   0.14975

 Mulliken charges and spin densities:
               1          2
     1  Cr   0.743055   3.833656
     2  O   -0.743055   0.166344
 Sum of Mulliken charges =  -0.00000   4.00000

 Dipole moment (field-independent basis, Debye):
    X=              0.0000    Y=              0.0000    Z=              0.2546  Tot=              0.2546
 Quadrupole moment (field-independent basis, Debye-Ang):
   XX=            -22.8553   YY=            -19.9442   ZZ=            -22.8055
   XY=              0.0000   XZ=              0.0000   YZ=              0.0000

 \\#P ROCCSD(T)=(maxcyc=150, Full, SaveAmplitudes, ReadAmplitudes)/Gen
 MP2-0=-102.5229212\CCSD=-102.4864185\CCSD(T)=-102.5270009\RMSD=4.179e-
 Normal termination of Gaussian 16 at Fri Mar  9 17:49:20 2018.
