 Gaussian 16, Revision A.03,
 Gaussian 16:  ES64L-G16RevA.03 25-Dec-2016

 ----------------------------------------------------------------------
 #P ROCCSD(T)=(maxcyc=150, Full, SaveAmplitudes, ReadAmplitudes)/Gen 5d
  7f SCF=(maxcycles=300) Integral(NoXCTest) MaxDisk=500GB Pop=Regular P
 seudo=Read Guess=Read
 ----------------------------------------------------------------------

 ---
 MnO
 ---
 Symbolic Z-matrix:
 Charge =  0 Multiplicity = 6

                         Standard orientation:
 ---------------------------------------------------------------------
 Center     Atomic      Atomic             Coordinates (Angstroms)
 Number     Number       Type             X           Y           Z
 ---------------------------------------------------------------------
      1         25           0        0.000000    0.000000    0.339394
      2          8           0        0.000000    0.000000   -1.060606
 ---------------------------------------------------------------------

 SCF Done:  E(ROHF) =  -119.104340918     A.U. after   23 cycles
 E2 =    -0.9683094054D+00 EUMP2 =    -0.12007265032330D+03
 CCSD(T)
 CCSD(T)= -0.12008159969D+03

 The electronic state is 6-SG.
 Alpha  occ. eigenvalues --   -4.22940  -2.78439  -2.78439  -2.76256  -1.24395
 Alpha  occ. eigenvalues --   -0.70624  -0.70624  -0.63311  -0.63311  -0.55824
 Alpha  occ. eigenvalues --   -0.41114  -0.41114  -0.31658
 Alpha virt. eigenvalues --    0.01131   0.01983   0.01983   0.03075   0.04788
 Alpha virt. eigenvalues --    0.05919   0.05919   0.05931   0.05931   0.06641
 Alpha virt. eigenvalues --    0.07150   0.07150   0.11540   0.14267   0.17858

 Mulliken charges and spin densities:
               1          2
     1  Mn   1.158412   4.787791
     2  O   -1.158412   0.212209
 Sum of Mulliken charges =  -0.00000   5.00000

 Dipole moment (field-independent basis, Debye):
    X=              0.0000    Y=              0.0000    Z=              4.1869  Tot=              4.1869
 Quadrupole moment (field-independent basis, Debye-Ang):
   XX=            -19.6886   YY=            -19.6886   ZZ=            -23.2186
   XY=              0.0000   XZ=              0.0000   YZ=              0.0000

 \\#P ROCCSD(T)=(maxcyc=150, Full, SaveAmplitudes, ReadAmplitudes)/Gen
 9.1043409\PMP2-0=-120.0726503\CCSD=-120.0384114\CCSD(T)=-120.0815997\R
 Normal termination of Gaussian 16 at Tue Mar 13 15:57:13 2018.
