 Gaussian 16, Revision A.03,
 Gaussian 16:  ES64L-G16RevA.03 25-Dec-2016

 ----------------------------------------------------------------------
 #P ROCCSD(T)=(maxcyc=150, Full)/Gen 5d 7f SCF=(maxcycles=300, NoVarAcc
 , VShift=300) MaxDisk=100GB Pop=Regular Pseudo=Read Guess=Read
 ----------------------------------------------------------------------

 --
 Ti
 --
 Symbolic Z-matrix:
 Charge =  0 Multiplicity = 3

                         Standard orientation:
 ---------------------------------------------------------------------
 Center     Atomic      Atomic             Coordinates (Angstroms)
 Number     Number       Type             X           Y           Z
 ---------------------------------------------------------------------
      1         22           0        0.000000    0.000000    0.000000
 ---------------------------------------------------------------------

 SCF Done:  E(ROHF) =  -57.7382698494     A.U. after   22 cycles
 E2 =    -0.4202762746D+00 EUMP2 =    -0.58158546124001D+02
 CCSD(T)
 CCSD(T)= -0.58196721545D+02

 Unable to determine electronic state:  an orbital has unidentified symmetry.
 Alpha  occ. eigenvalues --   -3.02751  -1.88039  -1.88039  -1.88039  -0.43454
 Alpha  occ. eigenvalues --   -0.43454  -0.23025
 Alpha virt. eigenvalues --    0.01428   0.01428   0.01428   0.02394   0.05306
 Alpha virt. eigenvalues --    0.05306   0.05306   0.05344   0.05344   0.05344
 Alpha virt. eigenvalues --    0.05463   0.05463   0.12316   0.12388   0.12388

 Mulliken charges and spin densities:
               1          2
     1  Ti  -0.000000   2.000000
 Sum of Mulliken charges =  -0.00000   2.00000

 Dipole moment (field-independent basis, Debye):
    X=              0.0000    Y=              0.0000    Z=             -0.0000  Tot=              0.0000
 Quadrupole moment (field-independent basis, Debye-Ang):
   XX=            -21.9059   YY=            -21.9059   ZZ=            -21.9059
   XY=             -0.0000   XZ=              0.0000   YZ=             -0.0000

 1\1\GINC-C430-082\SP\ROCCSD(T)-Full\Gen\Ti1(3)\AANNABE\13-Mar-2018\0\\
 #P ROCCSD(T)=(maxcyc=150, Full)/Gen 5d 7f SCF=(maxcycles=300, NoVarAcc
 , VShift=300) MaxDisk=100GB Pop=Regular Pseudo=Read Guess=Read\\Ti\\0,
 3\Ti,0,0.,0.,0.\\Version=ES64L-G16RevA.03\HF=-57.7382698\MP2=-58.15854
 61\MP3=-58.1803123\PUHF=-57.7382698\PMP2-0=-58.1585461\MP4SDQ=-58.1805
 605\CCSD=-58.1809648\CCSD(T)=-58.1967215\RMSD=6.406e-09\PG=OH [O(Ti1)]
 \\@

 Normal termination of Gaussian 16 at Tue Mar 13 12:25:05 2018.
