 Gaussian 16, Revision A.03,
 Gaussian 16:  ES64L-G16RevA.03 25-Dec-2016

 ----------------------------------------------------------------------
 #P ROCCSD(T)=(maxcyc=150, Full)/Gen 5d 7f SCF=(maxcycles=300) Integral
 (NoXCTest) MaxDisk=500GB Pop=Regular Pseudo=Read IOp(5/15=2) Guess=Rea
 d
 ----------------------------------------------------------------------

 ---
 ScH
 ---
 Symbolic Z-matrix:
 Charge =  0 Multiplicity = 1

                         Standard orientation:
 ---------------------------------------------------------------------
 Center     Atomic      Atomic             Coordinates (Angstroms)
 Number     Number       Type             X           Y           Z
 ---------------------------------------------------------------------
      1         21           0        0.000000    0.000000    0.068182
      2          1           0        0.000000    0.000000   -1.431818
 ---------------------------------------------------------------------

 SCF Done:  E(ROHF) =  -46.5797501437     A.U. after   11 cycles
 E2 =    -0.4339951839D+00 EUMP2 =    -0.47013745327646D+02
 CCSD(T)
 CCSD(T)= -0.47051859831D+02

 The electronic state is 1-SG.
 Alpha  occ. eigenvalues --   -2.66245  -1.64279  -1.63266  -1.63266  -0.44152
 Alpha  occ. eigenvalues --   -0.22243
 Alpha virt. eigenvalues --    0.01236   0.01236   0.01482   0.01665   0.02620
 Alpha virt. eigenvalues --    0.02620   0.02631   0.02631   0.02656   0.04107
 Alpha virt. eigenvalues --    0.04250   0.04250   0.06961   0.07289   0.07289

 Mulliken charges and spin densities:
               1          2
     1  Sc   0.383505   0.000000
     2  H   -0.383505   0.000000
 Sum of Mulliken charges =  -0.00000   0.00000

 Dipole moment (field-independent basis, Debye):
    X=              0.0000    Y=              0.0000    Z=              0.8082  Tot=              0.8082
 Quadrupole moment (field-independent basis, Debye-Ang):
   XX=            -23.3818   YY=            -23.3818   ZZ=            -24.5385
   XY=              0.0000   XZ=              0.0000   YZ=              0.0000

 P ROCCSD(T)=(maxcyc=150, Full)/Gen 5d 7f SCF=(maxcycles=300) Integral(
 PMP2-0=-47.0137453\MP4SDQ=-47.0330515\CCSD=-47.0326855\CCSD(T)=-47.051
 Normal termination of Gaussian 16 at Wed Feb 14 01:15:12 2018.
