 Gaussian 16, Revision A.03,
 Gaussian 16:  ES64L-G16RevA.03 25-Dec-2016

 ----------------------------------------------------------------------
 #P ROCCSD(T)=(maxcyc=150, Full, SaveAmplitudes, ReadAmplitudes)/Gen 5d
  7f SCF=(maxcycles=300) Integral(NoXCTest) MaxDisk=500GB Pop=Regular P
 seudo=Read Guess=Read IOp(5/15=2)
 ----------------------------------------------------------------------

 ---
 ScO
 ---
 Symbolic Z-matrix:
 Charge =  0 Multiplicity = 2

                         Standard orientation:
 ---------------------------------------------------------------------
 Center     Atomic      Atomic             Coordinates (Angstroms)
 Number     Number       Type             X           Y           Z
 ---------------------------------------------------------------------
      1         21           0        0.000000    0.000000    0.303448
      2          8           0        0.000000    0.000000   -0.796552
 ---------------------------------------------------------------------

 SCF Done:  E(ROHF) =  -61.4893015024     A.U. after   18 cycles
 E2 =    -0.6428037493D+00 EUMP2 =    -0.62132105251667D+02
 CCSD(T)
 CCSD(T)= -0.62164683235D+02

 The electronic state is 2-SG.
 Alpha  occ. eigenvalues --   -2.73905  -1.86425  -1.52649  -1.52649  -1.04120
 Alpha  occ. eigenvalues --   -0.69156  -0.69156  -0.46857  -0.16578
 Alpha virt. eigenvalues --    0.00954   0.00954   0.01489   0.02996   0.03750
 Alpha virt. eigenvalues --    0.03750   0.03803   0.03803   0.03870   0.04925
 Alpha virt. eigenvalues --    0.04925   0.06755   0.11205   0.11205   0.11357

 Mulliken charges and spin densities:
               1          2
     1  Sc   0.895634   1.059755
     2  O   -0.895634  -0.059755
 Sum of Mulliken charges =   0.00000   1.00000

 Dipole moment (field-independent basis, Debye):
    X=              0.0000    Y=              0.0000    Z=             -2.4427  Tot=              2.4427
 Quadrupole moment (field-independent basis, Debye-Ang):
   XX=            -24.3774   YY=            -24.3774   ZZ=            -28.5206
   XY=              0.0000   XZ=              0.0000   YZ=              0.0000

 \\#P ROCCSD(T)=(maxcyc=150, Full, SaveAmplitudes, ReadAmplitudes)/Gen
 35\CCSD=-62.1398061\CCSD(T)=-62.1646832\RMSD=1.652e-09\PG=C*V [C*(O1Sc
 Normal termination of Gaussian 16 at Tue Feb 20 19:57:20 2018.
