 Gaussian 16, Revision A.03,
 Gaussian 16:  ES64L-G16RevA.03 25-Dec-2016

 ----------------------------------------------------------------------
 #P ROCCSD(T)=(maxcyc=150, Full, SaveAmplitudes, ReadAmplitudes)/Gen 5d
  7f SCF=(maxcycles=300) Integral(NoXCTest) MaxDisk=500GB Pop=Regular P
 seudo=Read Guess=Read
 ----------------------------------------------------------------------

 ---
 ScO
 ---
 Symbolic Z-matrix:
 Charge =  0 Multiplicity = 2

                         Standard orientation:
 ---------------------------------------------------------------------
 Center     Atomic      Atomic             Coordinates (Angstroms)
 Number     Number       Type             X           Y           Z
 ---------------------------------------------------------------------
      1         21           0        0.000000    0.000000    0.551724
      2          8           0        0.000000    0.000000   -1.448276
 ---------------------------------------------------------------------

 SCF Done:  E(ROHF) =  -62.0115462412     A.U. after   15 cycles
 E2 =    -0.7332922460D+00 EUMP2 =    -0.62744838487195D+02
 CCSD(T)
 CCSD(T)= -0.62774859773D+02

 The electronic state is 2-SG.
 Alpha  occ. eigenvalues --   -2.79289  -1.70122  -1.70122  -1.69564  -1.08023
 Alpha  occ. eigenvalues --   -0.38938  -0.34652  -0.34652  -0.28373
 Alpha virt. eigenvalues --   -0.01368  -0.01368   0.00516   0.01602   0.02372
 Alpha virt. eigenvalues --    0.02372   0.02520   0.02520   0.03062   0.03301
 Alpha virt. eigenvalues --    0.03301   0.04050   0.04438   0.04438   0.08639

 Mulliken charges and spin densities:
               1          2
     1  Sc   1.201348   0.981950
     2  O   -1.201348   0.018050
 Sum of Mulliken charges =  -0.00000   1.00000

 Dipole moment (field-independent basis, Debye):
    X=              0.0000    Y=              0.0000    Z=              7.4428  Tot=              7.4428
 Quadrupole moment (field-independent basis, Debye-Ang):
   XX=            -22.0597   YY=            -22.0597   ZZ=            -35.0171
   XY=              0.0000   XZ=              0.0000   YZ=              0.0000

 \\#P ROCCSD(T)=(maxcyc=150, Full, SaveAmplitudes, ReadAmplitudes)/Gen
 15462\PMP2-0=-62.7448385\CCSD=-62.7217214\CCSD(T)=-62.7748598\RMSD=3.3
 Normal termination of Gaussian 16 at Wed Feb 28 20:18:26 2018.
