 Gaussian 16, Revision A.03,
 Gaussian 16:  ES64L-G16RevA.03 25-Dec-2016

 ----------------------------------------------------------------------
 #P ROCCSD(T)=(maxcyc=150, Full, SaveAmplitudes, ReadAmplitudes)/Gen 5d
  7f SCF=(maxcycles=300) Integral(NoXCTest) MaxDisk=500GB Pop=Regular P
 seudo=Read Guess=Read IOp(5/15=2)
 ----------------------------------------------------------------------

 ---
 MnH
 ---
 Symbolic Z-matrix:
 Charge =  0 Multiplicity = 7

                         Standard orientation:
 ---------------------------------------------------------------------
 Center     Atomic      Atomic             Coordinates (Angstroms)
 Number     Number       Type             X           Y           Z
 ---------------------------------------------------------------------
      1         25           0        0.000000    0.000000    0.053846
      2          1           0        0.000000    0.000000   -1.346154
 ---------------------------------------------------------------------

 SCF Done:  E(ROHF) =  -104.034839661     A.U. after   25 cycles
 E2 =    -0.5797273904D+00 EUMP2 =    -0.10461456705148D+03
 CCSD(T)
 CCSD(T)= -0.10463568270D+03

 The electronic state is 7-SG.
 Alpha  occ. eigenvalues --   -4.23565  -2.79011  -2.78841  -2.78841  -0.65488
 Alpha  occ. eigenvalues --   -0.63670  -0.63670  -0.63236  -0.63236  -0.41897
 Alpha  occ. eigenvalues --   -0.24852
 Alpha virt. eigenvalues --    0.01363   0.01363   0.02204   0.03235   0.05841
 Alpha virt. eigenvalues --    0.05841   0.08515   0.08515   0.08537   0.08962
 Alpha virt. eigenvalues --    0.08962   0.09227   0.14182   0.21139   0.22776

 Mulliken charges and spin densities:
               1          2
     1  Mn   0.448290   5.950566
     2  H   -0.448290   0.049434
 Sum of Mulliken charges =  -0.00000   6.00000

 Dipole moment (field-independent basis, Debye):
    X=              0.0000    Y=              0.0000    Z=              0.2893  Tot=              0.2893
 Quadrupole moment (field-independent basis, Debye-Ang):
   XX=            -16.0159   YY=            -16.0159   ZZ=            -25.4869
   XY=              0.0000   XZ=              0.0000   YZ=              0.0000

 \\#P ROCCSD(T)=(maxcyc=150, Full, SaveAmplitudes, ReadAmplitudes)/Gen
 .6186168\CCSD=-104.6195431\CCSD(T)=-104.6356827\RMSD=5.700e-09\PG=C*V
 Normal termination of Gaussian 16 at Mon Feb 26 03:34:06 2018.
