 Gaussian 16, Revision A.03,
 Gaussian 16:  ES64L-G16RevA.03 25-Dec-2016

 ----------------------------------------------------------------------
 #P ROCCSD(T)=(MaxCyc=150, Full)/Gen SCF=(maxcycle=400) Pseudo=Read Int
 egral(NoXCTest) Pop=Regular MaxDisk=500GB
 ----------------------------------------------------------------------

 ---
 FeO
 ---
 Symbolic Z-matrix:
 Charge =  0 Multiplicity = 5

                         Standard orientation:
 ---------------------------------------------------------------------
 Center     Atomic      Atomic             Coordinates (Angstroms)
 Number     Number       Type             X           Y           Z
 ---------------------------------------------------------------------
      1         26           0        0.000000    0.000000    0.305882
      2          8           0        0.000000    0.000000   -0.994118
 ---------------------------------------------------------------------

 SCF Done:  E(ROHF) =  -138.351072435     A.U. after   28 cycles
 E2 =    -0.1096815349D+01 EUMP2 =    -0.13944788778383D+03
 CCSD(T)
 CCSD(T)= -0.13943807108D+03

 Unable to determine electronic state:  partially filled degenerate orbitals.
 Alpha  occ. eigenvalues --   -4.35197  -3.00246  -2.94117  -2.94117  -1.29393
 Alpha  occ. eigenvalues --   -0.75971  -0.75971  -0.62727  -0.61699  -0.58383
 Alpha  occ. eigenvalues --   -0.43255  -0.43255  -0.30812
 Alpha virt. eigenvalues --    0.01645   0.02279   0.02279   0.03042   0.05362
 Alpha virt. eigenvalues --    0.06448   0.06448   0.06662   0.06672   0.07573
 Alpha virt. eigenvalues --    0.07982   0.07982   0.11465   0.15483   0.19548

 Mulliken charges and spin densities:
               1          2
     1  Fe   0.878593   3.729663
     2  O   -0.878593   0.270337
 Sum of Mulliken charges =  -0.00000   4.00000

 Dipole moment (field-independent basis, Debye):
    X=              0.0000    Y=              0.0000    Z=              2.9401  Tot=              2.9401
 Quadrupole moment (field-independent basis, Debye-Ang):
   XX=            -19.3257   YY=            -19.3257   ZZ=            -21.5815
   XY=              0.0000   XZ=              0.0000   YZ=              0.0000

 \\#P ROCCSD(T)=(MaxCyc=150, Full)/Gen SCF=(maxcycle=400) Pseudo=Read I
 88651\CCSD=-139.3908224\CCSD(T)=-139.4380711\RMSD=1.787e-09\PG=C*V [C*
 Normal termination of Gaussian 16 at Sun Mar 25 02:39:05 2018.
