 Gaussian 16, Revision A.03,
 Gaussian 16:  ES64L-G16RevA.03 25-Dec-2016

 ----------------------------------------------------------------------
 #P ROCCSD(T)=(MaxCyc=150, Full)/Gen SCF=(maxcycle=400) Pseudo=Read Int
 egral(NoXCTest) Pop=Regular MaxDisk=500GB
 ----------------------------------------------------------------------

 ---
 FeO
 ---
 Symbolic Z-matrix:
 Charge =  0 Multiplicity = 5

                         Standard orientation:
 ---------------------------------------------------------------------
 Center     Atomic      Atomic             Coordinates (Angstroms)
 Number     Number       Type             X           Y           Z
 ---------------------------------------------------------------------
      1         26           0        0.000000    0.000000    0.305882
      2          8           0        0.000000    0.000000   -0.994118
 ---------------------------------------------------------------------

 SCF Done:  E(ROHF) =  -138.347100533     A.U. after   27 cycles
 E2 =    -0.1048403676D+01 EUMP2 =    -0.13939550420845D+03
 CCSD(T)
 CCSD(T)= -0.13938795378D+03

 Unable to determine electronic state:  partially filled degenerate orbitals.
 Alpha  occ. eigenvalues --   -4.35246  -3.00307  -2.94153  -2.94153  -1.29455
 Alpha  occ. eigenvalues --   -0.75978  -0.75978  -0.62739  -0.61714  -0.58390
 Alpha  occ. eigenvalues --   -0.43255  -0.43255  -0.30831
 Alpha virt. eigenvalues --    0.01749   0.02509   0.02509   0.03301   0.05968
 Alpha virt. eigenvalues --    0.08025   0.08025   0.09912   0.09942   0.10275
 Alpha virt. eigenvalues --    0.10275   0.10751   0.12621   0.16873   0.26153

 Mulliken charges and spin densities:
               1          2
     1  Fe   0.736235   3.744837
     2  O   -0.736235   0.255163
 Sum of Mulliken charges =  -0.00000   4.00000

 Dipole moment (field-independent basis, Debye):
    X=              0.0000    Y=              0.0000    Z=              2.9512  Tot=              2.9512
 Quadrupole moment (field-independent basis, Debye-Ang):
   XX=            -19.3264   YY=            -19.3264   ZZ=            -21.5994
   XY=              0.0000   XZ=              0.0000   YZ=              0.0000

 \\#P ROCCSD(T)=(MaxCyc=150, Full)/Gen SCF=(maxcycle=400) Pseudo=Read I
 13482\CCSD=-139.3428485\CCSD(T)=-139.3879538\RMSD=6.925e-09\PG=C*V [C*
 Normal termination of Gaussian 16 at Sun Mar 25 00:43:06 2018.
