 Gaussian 16, Revision A.03,
 Gaussian 16:  ES64L-G16RevA.03 25-Dec-2016

 ----------------------------------------------------------------------
 #P ROCCSD(T)=(maxcyc=150, Full, SaveAmplitudes, ReadAmplitudes)/Gen 5d
  7f SCF=(maxcycles=300) Integral(NoXCTest) MaxDisk=500GB Pop=Regular P
 seudo=Read Guess=Read
 ----------------------------------------------------------------------

 ---
 CrO
 ---
 Symbolic Z-matrix:
 Charge =  0 Multiplicity = 5

                         Standard orientation:
 ---------------------------------------------------------------------
 Center     Atomic      Atomic             Coordinates (Angstroms)
 Number     Number       Type             X           Y           Z
 ---------------------------------------------------------------------
      1         24           0        0.000000    0.000000    0.375000
      2          8           0        0.000000    0.000000   -1.125000
 ---------------------------------------------------------------------

 SCF Done:  E(ROHF) =  -101.851330500     A.U. after   22 cycles
 E2 =    -0.9139471367D+00 EUMP2 =    -0.10276527763693D+03
 CCSD(T)
 CCSD(T)= -0.10278562178D+03

 Unable to determine electronic state:  an orbital has unidentified symmetry.
 Alpha  occ. eigenvalues --   -3.76683  -2.52141  -2.48124  -2.45382  -1.21320
 Alpha  occ. eigenvalues --   -0.63399  -0.57487  -0.55965  -0.50530  -0.48144
 Alpha  occ. eigenvalues --   -0.39699  -0.30102
 Alpha virt. eigenvalues --    0.00711   0.01026   0.01776   0.02766   0.04203
 Alpha virt. eigenvalues --    0.04447   0.05340   0.05341   0.05482   0.05771
 Alpha virt. eigenvalues --    0.06069   0.06493   0.10605   0.13249   0.13278

 Mulliken charges and spin densities:
               1          2
     1  Cr   0.999261   3.885792
     2  O   -0.999261   0.114208
 Sum of Mulliken charges =  -0.00000   4.00000

 Dipole moment (field-independent basis, Debye):
    X=              0.0000    Y=              0.0000    Z=              4.4342  Tot=              4.4342
 Quadrupole moment (field-independent basis, Debye-Ang):
   XX=            -20.8380   YY=            -19.7301   ZZ=            -24.4288
   XY=              0.0000   XZ=              0.0000   YZ=              0.0000

 \\#P ROCCSD(T)=(maxcyc=150, Full, SaveAmplitudes, ReadAmplitudes)/Gen
 MP2-0=-102.7652776\CCSD=-102.7362644\CCSD(T)=-102.7856218\RMSD=1.646e-
 Normal termination of Gaussian 16 at Sat Mar 10 07:23:46 2018.
