 Gaussian 16, Revision A.03,
 Gaussian 16:  ES64L-G16RevA.03 25-Dec-2016

 ----------------------------------------------------------------------
 #P ROCCSD(T)=(MaxCyc=150, Full)/Gen SCF=(maxcycle=400) Pseudo=Read Int
 egral(NoXCTest) Pop=Regular MaxDisk=500GB Guess=Read IOp(5/15=2)
 ----------------------------------------------------------------------

 ---
 CuO
 ---
 Symbolic Z-matrix:
 Charge =  0 Multiplicity = 2

                         Standard orientation:
 ---------------------------------------------------------------------
 Center     Atomic      Atomic             Coordinates (Angstroms)
 Number     Number       Type             X           Y           Z
 ---------------------------------------------------------------------
      1         29           0        0.000000    0.000000    0.410811
      2          8           0        0.000000    0.000000   -1.489189
 ---------------------------------------------------------------------

 SCF Done:  E(ROHF) =  -211.955882535     A.U. after   17 cycles
 E2 =    -0.1263103876D+01 EUMP2 =    -0.21321898641104D+03
 CCSD(T)
 CCSD(T)= -0.21315620352D+03

 Unable to determine electronic state:  an orbital has unidentified symmetry.
 Alpha  occ. eigenvalues --   -5.25844  -3.46203  -3.46198  -3.46066  -1.21481
 Alpha  occ. eigenvalues --   -0.55059  -0.53064  -0.52566  -0.52058  -0.52058
 Alpha  occ. eigenvalues --   -0.48382  -0.41233  -0.40688
 Alpha virt. eigenvalues --   -0.01780   0.02706   0.02858   0.03773   0.04568
 Alpha virt. eigenvalues --    0.09993   0.10267   0.13409   0.19217   0.19227
 Alpha virt. eigenvalues --    0.19414   0.20109   0.21554   0.22627   0.25944

 Mulliken charges and spin densities:
               1          2
     1  Cu   0.799870   0.010345
     2  O   -0.799870   0.989655
 Sum of Mulliken charges =   0.00000   1.00000

 Dipole moment (field-independent basis, Debye):
    X=              0.0000    Y=              0.0000    Z=              6.3801  Tot=              6.3801
 Quadrupole moment (field-independent basis, Debye-Ang):
   XX=            -15.3850   YY=            -16.9567   ZZ=            -21.6485
   XY=              0.0000   XZ=              0.0000   YZ=              0.0000

 \\#P ROCCSD(T)=(MaxCyc=150, Full)/Gen SCF=(maxcycle=400) Pseudo=Read I
 2189864\MP4SDQ=-213.1810921\CCSD=-213.1125986\CCSD(T)=-213.1562035\RMS
 Normal termination of Gaussian 16 at Mon Mar 26 18:35:12 2018.
