 Gaussian 16, Revision A.03,
 Gaussian 16:  ES64L-G16RevA.03 25-Dec-2016

 ----------------------------------------------------------------------
 #P ROCCSD(T)=(MaxCyc=150, Full)/Gen SCF=(maxcycle=400) Pseudo=Read Int
 egral(NoXCTest) Pop=Regular MaxDisk=500GB Guess=Read IOp(5/15=2)
 ----------------------------------------------------------------------

 ---
 CuO
 ---
 Symbolic Z-matrix:
 Charge =  0 Multiplicity = 2

                         Standard orientation:
 ---------------------------------------------------------------------
 Center     Atomic      Atomic             Coordinates (Angstroms)
 Number     Number       Type             X           Y           Z
 ---------------------------------------------------------------------
      1         29           0        0.000000    0.000000    0.410811
      2          8           0        0.000000    0.000000   -1.489189
 ---------------------------------------------------------------------

 SCF Done:  E(ROHF) =  -211.959478313     A.U. after   20 cycles
 E2 =    -0.1326746579D+01 EUMP2 =    -0.21328622489217D+03
 CCSD(T)
 CCSD(T)= -0.21322065655D+03

 Unable to determine electronic state:  an orbital has unidentified symmetry.
 Alpha  occ. eigenvalues --   -5.25838  -3.46189  -3.46181  -3.46054  -1.21424
 Alpha  occ. eigenvalues --   -0.55061  -0.53060  -0.52554  -0.52055  -0.52055
 Alpha  occ. eigenvalues --   -0.48386  -0.41239  -0.40682
 Alpha virt. eigenvalues --   -0.01776   0.02419   0.02544   0.03328   0.04335
 Alpha virt. eigenvalues --    0.08557   0.08771   0.11373   0.13149   0.13153
 Alpha virt. eigenvalues --    0.14533   0.14607   0.15078   0.18714   0.21255

 Mulliken charges and spin densities:
               1          2
     1  Cu   0.763631   0.010012
     2  O   -0.763631   0.989988
 Sum of Mulliken charges =  -0.00000   1.00000

 Dipole moment (field-independent basis, Debye):
    X=              0.0000    Y=              0.0000    Z=              6.3651  Tot=              6.3651
 Quadrupole moment (field-independent basis, Debye-Ang):
   XX=            -15.3767   YY=            -16.9304   ZZ=            -21.6587
   XY=              0.0000   XZ=              0.0000   YZ=              0.0000

 \\#P ROCCSD(T)=(MaxCyc=150, Full)/Gen SCF=(maxcycle=400) Pseudo=Read I
 .2862249\MP4SDQ=-213.2424999\CCSD=-213.1745835\CCSD(T)=-213.2206565\RM
 Normal termination of Gaussian 16 at Mon Mar 26 21:03:41 2018.
