 Gaussian 16, Revision A.03,
 Gaussian 16:  ES64L-G16RevA.03 25-Dec-2016

 ----------------------------------------------------------------------
 #P ROCCSD(T)=(maxcyc=150, Full, SaveAmplitudes, ReadAmplitudes)/Gen 5d
  7f SCF=(maxcycles=300) Integral(NoXCTest) MaxDisk=500GB Pop=Regular P
 seudo=Read Guess=Read
 ----------------------------------------------------------------------

 ---
 CrH
 ---
 Symbolic Z-matrix:
 Charge =  0 Multiplicity = 6

                         Standard orientation:
 ---------------------------------------------------------------------
 Center     Atomic      Atomic             Coordinates (Angstroms)
 Number     Number       Type             X           Y           Z
 ---------------------------------------------------------------------
      1         24           0        0.000000    0.000000    0.060000
      2          1           0        0.000000    0.000000   -1.440000
 ---------------------------------------------------------------------

 SCF Done:  E(ROHF) =  -86.3653723758     A.U. after   24 cycles
 E2 =    -0.5582718685D+00 EUMP2 =    -0.86923644244256D+02
 CCSD(T)
 CCSD(T)= -0.86959313337D+02

 The electronic state is 6-SG.
 Alpha  occ. eigenvalues --   -3.82639  -2.54593  -2.54593  -2.50626  -0.47640
 Alpha  occ. eigenvalues --   -0.47640  -0.44952  -0.44952  -0.43857  -0.26466
 Alpha virt. eigenvalues --    0.01361   0.01361   0.02009   0.02283   0.04645
 Alpha virt. eigenvalues --    0.05077   0.05077   0.05408   0.05408   0.05643
 Alpha virt. eigenvalues --    0.05643   0.06713   0.09475   0.12470   0.16977

 Mulliken charges and spin densities:
               1          2
     1  Cr   0.380344   4.984831
     2  H   -0.380344   0.015169
 Sum of Mulliken charges =  -0.00000   5.00000

 Dipole moment (field-independent basis, Debye):
    X=              0.0000    Y=              0.0000    Z=              1.6894  Tot=              1.6894
 Quadrupole moment (field-independent basis, Debye-Ang):
   XX=            -17.1046   YY=            -17.1046   ZZ=            -22.3629
   XY=              0.0000   XZ=              0.0000   YZ=              0.0000

 \\#P ROCCSD(T)=(maxcyc=150, Full, SaveAmplitudes, ReadAmplitudes)/Gen
 653724\PMP2-0=-86.9236442\CCSD=-86.9409822\CCSD(T)=-86.9593133\RMSD=2.
 Normal termination of Gaussian 16 at Mon Feb 26 06:06:58 2018.
