 Gaussian 16, Revision A.03,
 Gaussian 16:  ES64L-G16RevA.03 25-Dec-2016

 ----------------------------------------------------------------------
 #P ROCCSD(T)=(maxcyc=100, Full)/Gen SCF=(maxcycle=400, symm) Pseudo=Re
 ad Integral(NoXCTest) Pop=Regular MaxDisk=500GB Guess=Permute IOp(5/15
 =2)
 ----------------------------------------------------------------------

 ---
 FeH
 ---
 Symbolic Z-matrix:
 Charge =  0 Multiplicity = 4

                         Standard orientation:
 ---------------------------------------------------------------------
 Center     Atomic      Atomic             Coordinates (Angstroms)
 Number     Number       Type             X           Y           Z
 ---------------------------------------------------------------------
      1         26           0        0.000000    0.000000    0.070370
      2          1           0        0.000000    0.000000   -1.829630
 ---------------------------------------------------------------------

 SCF Done:  E(ROHF) =  -123.578877807     A.U. after   26 cycles
 E2 =    -0.7957274408D+00 EUMP2 =    -0.12437460524784D+03
 CCSD(T)
 CCSD(T)= -0.12438656047D+03

 Unable to determine electronic state:  an orbital has unidentified symmetry.
 Alpha  occ. eigenvalues --   -4.16438  -2.74717  -2.74494  -2.74494  -0.48558
 Alpha  occ. eigenvalues --   -0.48558  -0.48414  -0.43294  -0.42215  -0.31447
 Alpha virt. eigenvalues --   -0.01120   0.02074   0.02074   0.03164   0.03399
 Alpha virt. eigenvalues --    0.06202   0.06678   0.06693   0.06865   0.06865
 Alpha virt. eigenvalues --    0.07605   0.07605   0.10312   0.15324   0.17547

 Mulliken charges and spin densities:
               1          2
     1  Fe   0.364615   2.998731
     2  H   -0.364615   0.001269
 Sum of Mulliken charges =  -0.00000   3.00000

 Dipole moment (field-independent basis, Debye):
    X=              0.0000    Y=              0.0000    Z=              5.2726  Tot=              5.2726
 Quadrupole moment (field-independent basis, Debye-Ang):
   XX=            -15.1993   YY=            -15.1993   ZZ=            -19.8214
   XY=              0.0000   XZ=              0.0000   YZ=              0.0000

 \\#P ROCCSD(T)=(maxcyc=100, Full)/Gen SCF=(maxcycle=400, symm) Pseudo=
 3604816\CCSD(T)=-124.3865605\RMSD=3.311e-09\PG=C*V [C*(H1Fe1)]\\@
 Normal termination of Gaussian 16 at Mon Feb 19 13:58:25 2018.
