 Gaussian 16, Revision A.03,
 Gaussian 16:  ES64L-G16RevA.03 25-Dec-2016

 ----------------------------------------------------------------------
 #P ROCCSD(T)=(maxcyc=100, Full)/Gen SCF=(maxcycle=400, symm) Pseudo=Re
 ad Integral(NoXCTest) Pop=Regular MaxDisk=500GB Guess=Permute IOp(5/15
 =2)
 ----------------------------------------------------------------------

 ---
 FeH
 ---
 Symbolic Z-matrix:
 Charge =  0 Multiplicity = 4

                         Standard orientation:
 ---------------------------------------------------------------------
 Center     Atomic      Atomic             Coordinates (Angstroms)
 Number     Number       Type             X           Y           Z
 ---------------------------------------------------------------------
      1         26           0        0.000000    0.000000    0.070370
      2          1           0        0.000000    0.000000   -1.829630
 ---------------------------------------------------------------------

 SCF Done:  E(ROHF) =  -123.579468405     A.U. after   25 cycles
 E2 =    -0.8099021546D+00 EUMP2 =    -0.12438937055960D+03
 CCSD(T)
 CCSD(T)= -0.12439931283D+03

 Unable to determine electronic state:  an orbital has unidentified symmetry.
 Alpha  occ. eigenvalues --   -4.16458  -2.74712  -2.74490  -2.74490  -0.48555
 Alpha  occ. eigenvalues --   -0.48555  -0.48412  -0.43296  -0.42219  -0.31448
 Alpha virt. eigenvalues --   -0.01134   0.02010   0.02010   0.02740   0.03000
 Alpha virt. eigenvalues --    0.05735   0.06119   0.06131   0.06370   0.06370
 Alpha virt. eigenvalues --    0.07235   0.07235   0.08976   0.12508   0.15530

 Mulliken charges and spin densities:
               1          2
     1  Fe   0.323239   2.997815
     2  H   -0.323239   0.002185
 Sum of Mulliken charges =  -0.00000   3.00000

 Dipole moment (field-independent basis, Debye):
    X=              0.0000    Y=              0.0000    Z=              5.2720  Tot=              5.2720
 Quadrupole moment (field-independent basis, Debye-Ang):
   XX=            -15.1970   YY=            -15.1970   ZZ=            -19.8243
   XY=              0.0000   XZ=              0.0000   YZ=              0.0000

 \\#P ROCCSD(T)=(maxcyc=100, Full)/Gen SCF=(maxcycle=400, symm) Pseudo=
 2455\CCSD(T)=-124.3993128\RMSD=7.406e-09\PG=C*V [C*(H1Fe1)]\\@
 Normal termination of Gaussian 16 at Mon Feb 12 22:12:28 2018.
