 Gaussian 16, Revision A.03,
 Gaussian 16:  ES64L-G16RevA.03 25-Dec-2016

 ----------------------------------------------------------------------
 #P ROCCSD(T)=(maxcyc=100, Full)/Gen SCF=(maxcycle=400, symm) Pseudo=Re
 ad Integral(NoXCTest) Pop=Regular MaxDisk=500GB Guess=Permute IOp(5/15
 =2)
 ----------------------------------------------------------------------

 ---
 FeH
 ---
 Symbolic Z-matrix:
 Charge =  0 Multiplicity = 4

                         Standard orientation:
 ---------------------------------------------------------------------
 Center     Atomic      Atomic             Coordinates (Angstroms)
 Number     Number       Type             X           Y           Z
 ---------------------------------------------------------------------
      1         26           0        0.000000    0.000000    0.070370
      2          1           0        0.000000    0.000000   -1.829630
 ---------------------------------------------------------------------

 SCF Done:  E(ROHF) =  -123.577768557     A.U. after   24 cycles
 E2 =    -0.7600504159D+00 EUMP2 =    -0.12433781897331D+03
 CCSD(T)
 CCSD(T)= -0.12435174145D+03

 Unable to determine electronic state:  an orbital has unidentified symmetry.
 Alpha  occ. eigenvalues --   -4.16484  -2.74732  -2.74507  -2.74507  -0.48548
 Alpha  occ. eigenvalues --   -0.48548  -0.48404  -0.43283  -0.42198  -0.31445
 Alpha virt. eigenvalues --   -0.01113   0.02313   0.02313   0.03448   0.03676
 Alpha virt. eigenvalues --    0.08286   0.08286   0.09404   0.10039   0.10082
 Alpha virt. eigenvalues --    0.10342   0.10342   0.11150   0.16859   0.22263

 Mulliken charges and spin densities:
               1          2
     1  Fe   0.428683   2.998933
     2  H   -0.428683   0.001067
 Sum of Mulliken charges =  -0.00000   3.00000

 Dipole moment (field-independent basis, Debye):
    X=              0.0000    Y=              0.0000    Z=              5.2769  Tot=              5.2769
 Quadrupole moment (field-independent basis, Debye-Ang):
   XX=            -15.2149   YY=            -15.2149   ZZ=            -19.8084
   XY=              0.0000   XZ=              0.0000   YZ=              0.0000

 \\#P ROCCSD(T)=(maxcyc=100, Full)/Gen SCF=(maxcycle=400, symm) Pseudo=
 84285\CCSD(T)=-124.3517414\RMSD=8.180e-09\PG=C*V [C*(H1Fe1)]\\@
 Normal termination of Gaussian 16 at Mon Feb 12 20:23:19 2018.
