 Gaussian 16, Revision A.03,
 Gaussian 16:  ES64L-G16RevA.03 25-Dec-2016

 ----------------------------------------------------------------------
 #P ROCCSD(T)=(maxcyc=150, Full)/Gen 5d 7f SCF=(maxcycles=300) Integral
 (NoXCTest) MaxDisk=500GB Pop=Regular Pseudo=Read IOp(5/15=2) Guess=Rea
 d
 ----------------------------------------------------------------------

 ---
 ScH
 ---
 Symbolic Z-matrix:
 Charge =  0 Multiplicity = 1

                         Standard orientation:
 ---------------------------------------------------------------------
 Center     Atomic      Atomic             Coordinates (Angstroms)
 Number     Number       Type             X           Y           Z
 ---------------------------------------------------------------------
      1         21           0        0.000000    0.000000    0.072727
      2          1           0        0.000000    0.000000   -1.527273
 ---------------------------------------------------------------------

 SCF Done:  E(ROHF) =  -46.7832687699     A.U. after   11 cycles
 E2 =    -0.4286851289D+00 EUMP2 =    -0.47211953898817D+02
 CCSD(T)
 CCSD(T)= -0.47253612460D+02

 The electronic state is 1-SG.
 Alpha  occ. eigenvalues --   -2.73335  -1.64439  -1.63971  -1.63971  -0.43064
 Alpha  occ. eigenvalues --   -0.22585
 Alpha virt. eigenvalues --    0.01177   0.01177   0.01581   0.01898   0.02868
 Alpha virt. eigenvalues --    0.02868   0.02909   0.02909   0.02924   0.04187
 Alpha virt. eigenvalues --    0.04187   0.04424   0.07670   0.07670   0.07894

 Mulliken charges and spin densities:
               1          2
     1  Sc   0.292300   0.000000
     2  H   -0.292300   0.000000
 Sum of Mulliken charges =  -0.00000   0.00000

 Dipole moment (field-independent basis, Debye):
    X=              0.0000    Y=              0.0000    Z=              0.9015  Tot=              0.9015
 Quadrupole moment (field-independent basis, Debye-Ang):
   XX=            -23.2240   YY=            -23.2240   ZZ=            -25.4454
   XY=              0.0000   XZ=              0.0000   YZ=              0.0000

 P ROCCSD(T)=(maxcyc=150, Full)/Gen 5d 7f SCF=(maxcycles=300) Integral(
 PMP2-0=-47.2119539\MP4SDQ=-47.234809\CCSD=-47.2345651\CCSD(T)=-47.2536
 Normal termination of Gaussian 16 at Wed Feb 14 01:47:00 2018.
