 Gaussian 16, Revision A.03,
 Gaussian 16:  ES64L-G16RevA.03 25-Dec-2016

 ----------------------------------------------------------------------
 #P ROHF/Gen 5d 7f SCF=(maxcycles=500) Integral(Grid=525302, DKHSO) Max
 Disk=5000GB Pop=Full Guess=Read
 ----------------------------------------------------------------------

 -
 H
 -
 Symbolic Z-matrix:
 Charge =  0 Multiplicity = 2

                         Standard orientation:
 ---------------------------------------------------------------------
 Center     Atomic      Atomic             Coordinates (Angstroms)
 Number     Number       Type             X           Y           Z
 ---------------------------------------------------------------------
      1          1           0        0.000000    0.000000    0.000000
 ---------------------------------------------------------------------

 SCF Done:  E(ROHF) = -0.499954938130     A.U. after    6 cycles

 The electronic state is 2-A1G.
 Alpha  occ. eigenvalues --   -0.12500
 Alpha virt. eigenvalues --    0.05398   0.17823   0.17823   0.17823   0.38013
 Alpha virt. eigenvalues --    0.61780   0.61780   0.61780   0.61780   0.61780
 Alpha virt. eigenvalues --    0.76385   0.76385   0.76385   1.56292   1.56292

 Mulliken charges and spin densities:
               1          2
     1  H    0.000000   1.000000
 Sum of Mulliken charges =   0.00000   1.00000

 Dipole moment (field-independent basis, Debye):
    X=              0.0000    Y=              0.0000    Z=              0.0000  Tot=              0.0000
 Quadrupole moment (field-independent basis, Debye-Ang):
   XX=             -1.3464   YY=             -1.3464   ZZ=             -1.3464
   XY=              0.0000   XZ=              0.0000   YZ=             -0.0000

 Normal termination of Gaussian 16 at Tue Jan 30 11:06:38 2018.
