 Gaussian 16, Revision A.03,
 Gaussian 16:  ES64L-G16RevA.03 25-Dec-2016

 ----------------------------------------------------------------------
 #P ROCCSD(T)=(maxcyc=150, Full, SaveAmplitudes, ReadAmplitudes)/Gen 5d
  7f SCF=(maxcycles=300) Integral(NoXCTest) MaxDisk=500GB Pop=Regular P
 seudo=Read Guess=Read IOp(5/15=2)
 ----------------------------------------------------------------------

 ---
 MnO
 ---
 Symbolic Z-matrix:
 Charge =  0 Multiplicity = 6

                         Standard orientation:
 ---------------------------------------------------------------------
 Center     Atomic      Atomic             Coordinates (Angstroms)
 Number     Number       Type             X           Y           Z
 ---------------------------------------------------------------------
      1         25           0        0.000000    0.000000    0.387879
      2          8           0        0.000000    0.000000   -1.212121
 ---------------------------------------------------------------------

 SCF Done:  E(ROHF) =  -119.178026259     A.U. after   19 cycles
 E2 =    -0.9048760011D+00 EUMP2 =    -0.12008290226036D+03
 CCSD(T)
 CCSD(T)= -0.12011043989D+03

 The electronic state is 6-SG.
 Alpha  occ. eigenvalues --   -4.14818  -2.78832  -2.78832  -2.77946  -1.14635
 Alpha  occ. eigenvalues --   -0.64501  -0.64501  -0.62635  -0.62635  -0.56725
 Alpha  occ. eigenvalues --   -0.35114  -0.35114  -0.34087
 Alpha virt. eigenvalues --   -0.03332   0.01787   0.01787   0.02263   0.03836
 Alpha virt. eigenvalues --    0.06914   0.06914   0.08318   0.08556   0.08556
 Alpha virt. eigenvalues --    0.09673   0.09673   0.13682   0.13932   0.23309

 Mulliken charges and spin densities:
               1          2
     1  Mn   1.133485   4.851975
     2  O   -1.133485   0.148025
 Sum of Mulliken charges =  -0.00000   5.00000

 Dipole moment (field-independent basis, Debye):
    X=              0.0000    Y=              0.0000    Z=              8.2605  Tot=              8.2605
 Quadrupole moment (field-independent basis, Debye-Ang):
   XX=            -18.8307   YY=            -18.8307   ZZ=            -23.0059
   XY=              0.0000   XZ=              0.0000   YZ=              0.0000

 \\#P ROCCSD(T)=(maxcyc=150, Full, SaveAmplitudes, ReadAmplitudes)/Gen
 .0784937\CCSD=-120.0690283\CCSD(T)=-120.1104399\RMSD=8.895e-09\PG=C*V
 Normal termination of Gaussian 16 at Fri Mar  9 17:35:56 2018.
