 Gaussian 16, Revision A.03,
 Gaussian 16:  ES64L-G16RevA.03 25-Dec-2016

 ----------------------------------------------------------------------
 #P ROCCSD(T)=(maxcyc=150, Full, SaveAmplitudes, ReadAmplitudes)/Gen 5d
  7f SCF=(maxcycles=300) Integral(NoXCTest) MaxDisk=500GB Pop=Regular P
 seudo=Read Guess=Read IOp(5/15=2)
 ----------------------------------------------------------------------

 ---
 CrO
 ---
 Symbolic Z-matrix:
 Charge =  0 Multiplicity = 5

                         Standard orientation:
 ---------------------------------------------------------------------
 Center     Atomic      Atomic             Coordinates (Angstroms)
 Number     Number       Type             X           Y           Z
 ---------------------------------------------------------------------
      1         24           0        0.000000    0.000000    0.425000
      2          8           0        0.000000    0.000000   -1.275000
 ---------------------------------------------------------------------

 SCF Done:  E(ROHF) =  -101.815869868     A.U. after   48 cycles
 E2 =    -0.8594447003D+00 EUMP2 =    -0.10267531456810D+03
 CCSD(T)
 CCSD(T)= -0.10272042589D+03

 Unable to determine electronic state:  an orbital has unidentified symmetry.
 Alpha  occ. eigenvalues --   -3.73363  -2.50388  -2.45743  -2.44568  -1.12107
 Alpha  occ. eigenvalues --   -0.56032  -0.55876  -0.54154  -0.49663  -0.36723
 Alpha  occ. eigenvalues --   -0.33946  -0.32804
 Alpha virt. eigenvalues --   -0.03391   0.00877   0.01579   0.02215   0.03725
 Alpha virt. eigenvalues --    0.05068   0.06378   0.07512   0.07527   0.07691
 Alpha virt. eigenvalues --    0.08304   0.08789   0.13281   0.14594   0.15634

 Mulliken charges and spin densities:
               1          2
     1  Cr   1.169520   3.901370
     2  O   -1.169520   0.098630
 Sum of Mulliken charges =  -0.00000   4.00000

 Dipole moment (field-independent basis, Debye):
    X=              0.0000    Y=              0.0000    Z=              8.8351  Tot=              8.8351
 Quadrupole moment (field-independent basis, Debye-Ang):
   XX=            -19.7744   YY=            -18.7376   ZZ=            -23.1365
   XY=              0.0000   XZ=              0.0000   YZ=              0.0000

 \\#P ROCCSD(T)=(maxcyc=150, Full, SaveAmplitudes, ReadAmplitudes)/Gen
 SD=-102.6705056\CCSD(T)=-102.7204259\RMSD=5.665e-09\PG=C*V [C*(O1Cr1)]
 Normal termination of Gaussian 16 at Sat Mar 10 08:06:14 2018.
