 Gaussian 16, Revision A.03,
 Gaussian 16:  ES64L-G16RevA.03 25-Dec-2016

 ----------------------------------------------------------------------
 #P ROCCSD(T)=(maxcyc=150, Full)/Gen 5d 7f SCF=(maxcycles=300) Integral
 (NoXCTest) MaxDisk=500GB Pop=Regular Pseudo=Read IOp(5/15=2) Guess=Rea
 d
 ----------------------------------------------------------------------

 ---
 ScH
 ---
 Symbolic Z-matrix:
 Charge =  0 Multiplicity = 1

                         Standard orientation:
 ---------------------------------------------------------------------
 Center     Atomic      Atomic             Coordinates (Angstroms)
 Number     Number       Type             X           Y           Z
 ---------------------------------------------------------------------
      1         21           0        0.000000    0.000000    0.063636
      2          1           0        0.000000    0.000000   -1.336364
 ---------------------------------------------------------------------

 SCF Done:  E(ROHF) =  -46.5592211693     A.U. after   11 cycles
 E2 =    -0.4283078224D+00 EUMP2 =    -0.46987528991679D+02
 CCSD(T)
 CCSD(T)= -0.47026455749D+02

 The electronic state is 1-SG.
 Alpha  occ. eigenvalues --   -2.64886  -1.63716  -1.61924  -1.61924  -0.45243
 Alpha  occ. eigenvalues --   -0.21940
 Alpha virt. eigenvalues --    0.01275   0.01275   0.01516   0.01915   0.02889
 Alpha virt. eigenvalues --    0.02889   0.02895   0.02895   0.02908   0.04369
 Alpha virt. eigenvalues --    0.04369   0.04443   0.07865   0.08054   0.08054

 Mulliken charges and spin densities:
               1          2
     1  Sc   0.316305   0.000000
     2  H   -0.316305   0.000000
 Sum of Mulliken charges =  -0.00000   0.00000

 Dipole moment (field-independent basis, Debye):
    X=              0.0000    Y=              0.0000    Z=              0.7014  Tot=              0.7014
 Quadrupole moment (field-independent basis, Debye-Ang):
   XX=            -23.5059   YY=            -23.5059   ZZ=            -23.8126
   XY=              0.0000   XZ=              0.0000   YZ=              0.0000

 P ROCCSD(T)=(maxcyc=150, Full)/Gen 5d 7f SCF=(maxcycles=300) Integral(
 MP2-0=-46.987529\MP4SDQ=-47.0083061\CCSD=-47.0078134\CCSD(T)=-47.02645
 Normal termination of Gaussian 16 at Tue Feb 13 22:22:01 2018.
