 Gaussian 16, Revision A.03,
 Gaussian 16:  ES64L-G16RevA.03 25-Dec-2016

 ----------------------------------------------------------------------
 #P ROCCSD(T)=(maxcyc=150, Full)/Gen 5d 7f SCF=(maxcycles=300, VShift=3
 00) Integral(NoXCTest, DKHSO) MaxDisk=100GB Pop=Regular Guess=Permute
 IOp(5/15=2)
 ----------------------------------------------------------------------

 --
 Mn
 --
 Symbolic Z-matrix:
 Charge =  0 Multiplicity = 6

                         Standard orientation:
 ---------------------------------------------------------------------
 Center     Atomic      Atomic             Coordinates (Angstroms)
 Number     Number       Type             X           Y           Z
 ---------------------------------------------------------------------
      1         25           0        0.000000    0.000000    0.000000
 ---------------------------------------------------------------------

 SCF Done:  E(ROHF) =  -1157.39008566     A.U. after   28 cycles
 E2 =    -0.9582798390D+00 EUMP2 =    -0.11583483654973D+04
 CCSD(T)
 CCSD(T)= -0.11583562151D+04

 The electronic state is 6-A1G.
 Alpha  occ. eigenvalues -- -242.48899 -29.59078 -24.94495 -24.94495 -24.94495
 Alpha  occ. eigenvalues --   -4.08034  -2.73266  -2.73266  -2.73266  -0.62572
 Alpha  occ. eigenvalues --   -0.62572  -0.62572  -0.62572  -0.62572  -0.26785
 Alpha virt. eigenvalues --    0.01846   0.01846   0.01846   0.02666   0.06594
 Alpha virt. eigenvalues --    0.06594   0.06594   0.08967   0.08967   0.08967
 Alpha virt. eigenvalues --    0.08967   0.08967   0.13922   0.24257   0.24257

 Mulliken charges and spin densities:
               1          2
     1  Mn   0.000000   5.000000
 Sum of Mulliken charges =   0.00000   5.00000

 Dipole moment (field-independent basis, Debye):
    X=              0.0000    Y=              0.0000    Z=              0.0000  Tot=              0.0000
 Quadrupole moment (field-independent basis, Debye-Ang):
   XX=            -19.1020   YY=            -19.1020   ZZ=            -19.1020
   XY=             -0.0000   XZ=             -0.0000   YZ=              0.0000

 1\1\GINC-C506-011\SP\ROCCSD(T)-Full\Gen\Mn1(6)\AANNABE\12-Mar-2018\2\\
 #P ROCCSD(T)=(maxcyc=150, Full)/Gen 5d 7f SCF=(maxcycles=300, VShift=3
 00) Integral(NoXCTest, DKHSO) MaxDisk=100GB Pop=Regular Guess=Permute
 IOp(5/15=2)\\Mn\\0,6\Mn,0,0.,0.,0.\\1,2,3,4,5,6,7,8,9,15,10,11,12,13,1
 4\\Version=ES64L-G16RevA.03\State=6-A1G\HF=-1157.3900857\MP2=-1158.348
 3655\MP3=-1158.3327195\PUHF=-1157.3900857\PMP2-0=-1158.3483655\MP4SDQ=
 -1158.3385505\CCSD=-1158.3378724\CCSD(T)=-1158.3562151\RMSD=6.724e-09\
 PG=OH [O(Mn1)]\\@

 Normal termination of Gaussian 16 at Mon Mar 12 12:58:08 2018.
