 Gaussian 16, Revision A.03,
 Gaussian 16:  ES64L-G16RevA.03 25-Dec-2016

 ----------------------------------------------------------------------
 #P ROCCSD(T)=(MaxCyc=150, Full)/Gen SCF=(maxcycle=400, vshift=200) Pse
 udo=Read Integral(NoXCTest) Pop=Regular MaxDisk=500GB Guess=Read IOp(5
 /15=2)
 ----------------------------------------------------------------------

 ---
 ZnH
 ---
 Symbolic Z-matrix:
 Charge =  0 Multiplicity = 2

                         Standard orientation:
 ---------------------------------------------------------------------
 Center     Atomic      Atomic             Coordinates (Angstroms)
 Number     Number       Type             X           Y           Z
 ---------------------------------------------------------------------
      1         30           0        0.000000    0.000000    0.041935
      2          1           0        0.000000    0.000000   -1.258065
 ---------------------------------------------------------------------

 SCF Done:  E(ROHF) =  -225.774217454     A.U. after   21 cycles
 E2 =    -0.1121710504D+01 EUMP2 =    -0.22689592795837D+03
 CCSD(T)
 CCSD(T)= -0.22684101532D+03

 The electronic state is 2-SG.
 Alpha  occ. eigenvalues --   -5.88236  -3.96319  -3.95959  -3.95959  -0.81801
 Alpha  occ. eigenvalues --   -0.80240  -0.80240  -0.80039  -0.80039  -0.48434
 Alpha  occ. eigenvalues --   -0.26912
 Alpha virt. eigenvalues --    0.01962   0.01962   0.02185   0.03369   0.06399
 Alpha virt. eigenvalues --    0.06399   0.06925   0.11853   0.14021   0.15325
 Alpha virt. eigenvalues --    0.15325   0.15524   0.15524   0.18975   0.20666

 Mulliken charges and spin densities:
               1          2
     1  Zn   0.284382   0.941478
     2  H   -0.284382   0.058522
 Sum of Mulliken charges =  -0.00000   1.00000

 Dipole moment (field-independent basis, Debye):
    X=              0.0000    Y=              0.0000    Z=             -0.0384  Tot=              0.0384
 Quadrupole moment (field-independent basis, Debye-Ang):
   XX=            -14.4494   YY=            -14.4494   ZZ=            -20.6072
   XY=              0.0000   XZ=              0.0000   YZ=              0.0000

 \\#P ROCCSD(T)=(MaxCyc=150, Full)/Gen SCF=(maxcycle=400, vshift=200) P
 Normal termination of Gaussian 16 at Mon Apr 30 08:36:12 2018.
