 Gaussian 16, Revision A.03,
 Gaussian 16:  ES64L-G16RevA.03 25-Dec-2016

 ----------------------------------------------------------------------
 #P ROCCSD(T)=(MaxCyc=150, Full)/Gen SCF=(maxcycle=400, vshift=200) Pse
 udo=Read Integral(NoXCTest) Pop=Regular MaxDisk=500GB Guess=Read IOp(5
 /15=2)
 ----------------------------------------------------------------------

 ---
 ZnH
 ---
 Symbolic Z-matrix:
 Charge =  0 Multiplicity = 2

                         Standard orientation:
 ---------------------------------------------------------------------
 Center     Atomic      Atomic             Coordinates (Angstroms)
 Number     Number       Type             X           Y           Z
 ---------------------------------------------------------------------
      1         30           0        0.000000    0.000000    0.041935
      2          1           0        0.000000    0.000000   -1.258065
 ---------------------------------------------------------------------

 SCF Done:  E(ROHF) =  -225.774095489     A.U. after   20 cycles
 E2 =    -0.1095201347D+01 EUMP2 =    -0.22686929683666D+03
 CCSD(T)
 CCSD(T)= -0.22681636793D+03

 The electronic state is 2-SG.
 Alpha  occ. eigenvalues --   -5.88237  -3.96320  -3.95960  -3.95960  -0.81803
 Alpha  occ. eigenvalues --   -0.80242  -0.80242  -0.80039  -0.80039  -0.48433
 Alpha  occ. eigenvalues --   -0.26911
 Alpha virt. eigenvalues --    0.02025   0.02025   0.02513   0.03757   0.06823
 Alpha virt. eigenvalues --    0.06823   0.07984   0.14388   0.17730   0.17852
 Alpha virt. eigenvalues --    0.17852   0.18207   0.18207   0.21716   0.23181

 Mulliken charges and spin densities:
               1          2
     1  Zn   0.267879   0.940337
     2  H   -0.267879   0.059663
 Sum of Mulliken charges =  -0.00000   1.00000

 Dipole moment (field-independent basis, Debye):
    X=              0.0000    Y=              0.0000    Z=             -0.0382  Tot=              0.0382
 Quadrupole moment (field-independent basis, Debye-Ang):
   XX=            -14.4511   YY=            -14.4511   ZZ=            -20.6074
   XY=              0.0000   XZ=              0.0000   YZ=              0.0000

 \\#P ROCCSD(T)=(MaxCyc=150, Full)/Gen SCF=(maxcycle=400, vshift=200) P
 CCSD(T)=-226.8163679\RMSD=4.742e-09\PG=C*V [C*(H1Zn1)]\\@
 Normal termination of Gaussian 16 at Sat Apr 21 11:52:17 2018.
