 Gaussian 16, Revision A.03,
 Gaussian 16:  ES64L-G16RevA.03 25-Dec-2016

 ----------------------------------------------------------------------
 #P ROCCSD(T)=(MaxCyc=150, Full)/Gen SCF=(maxcycle=400, vshift=200) Pse
 udo=Read Integral(NoXCTest) Pop=Regular MaxDisk=500GB Guess=Read IOp(5
 /15=2)
 ----------------------------------------------------------------------

 ---
 ZnH
 ---
 Symbolic Z-matrix:
 Charge =  0 Multiplicity = 2

                         Standard orientation:
 ---------------------------------------------------------------------
 Center     Atomic      Atomic             Coordinates (Angstroms)
 Number     Number       Type             X           Y           Z
 ---------------------------------------------------------------------
      1         30           0        0.000000    0.000000    0.041935
      2          1           0        0.000000    0.000000   -1.258065
 ---------------------------------------------------------------------

 SCF Done:  E(ROHF) =  -225.773075747     A.U. after   31 cycles
 E2 =    -0.1040264665D+01 EUMP2 =    -0.22681334041240D+03
 CCSD(T)
 CCSD(T)= -0.22676130957D+03

 The electronic state is 2-SG.
 Alpha  occ. eigenvalues --   -5.88246  -3.96332  -3.95974  -3.95974  -0.81806
 Alpha  occ. eigenvalues --   -0.80246  -0.80246  -0.80043  -0.80043  -0.48437
 Alpha  occ. eigenvalues --   -0.26911
 Alpha virt. eigenvalues --    0.02153   0.02153   0.02674   0.04102   0.07777
 Alpha virt. eigenvalues --    0.07777   0.08932   0.15930   0.19139   0.24435
 Alpha virt. eigenvalues --    0.24435   0.25127   0.25127   0.26494   0.28797

 Mulliken charges and spin densities:
               1          2
     1  Zn   0.301572   0.955130
     2  H   -0.301572   0.044870
 Sum of Mulliken charges =  -0.00000   1.00000

 Dipole moment (field-independent basis, Debye):
    X=              0.0000    Y=              0.0000    Z=             -0.0381  Tot=              0.0381
 Quadrupole moment (field-independent basis, Debye-Ang):
   XX=            -14.4560   YY=            -14.4560   ZZ=            -20.6031
   XY=              0.0000   XZ=              0.0000   YZ=              0.0000

 \\#P ROCCSD(T)=(MaxCyc=150, Full)/Gen SCF=(maxcycle=400, vshift=200) P
 CCSD(T)=-226.7613096\RMSD=6.330e-09\PG=C*V [C*(H1Zn1)]\\@
 Normal termination of Gaussian 16 at Sat Apr 21 10:59:16 2018.
