 Gaussian 16, Revision A.03,
 Gaussian 16:  ES64L-G16RevA.03 25-Dec-2016

 ----------------------------------------------------------------------
 #P ROCCSD(T)=(maxcyc=150, Full)/Gen 5d 7f SCF=(maxcycles=300, NoVarAcc
 , VShift=200) MaxDisk=100GB Pop=Regular Pseudo=Read Guess=Read
 ----------------------------------------------------------------------

 --
 Ti
 --
 Symbolic Z-matrix:
 Charge =  0 Multiplicity = 3

                         Standard orientation:
 ---------------------------------------------------------------------
 Center     Atomic      Atomic             Coordinates (Angstroms)
 Number     Number       Type             X           Y           Z
 ---------------------------------------------------------------------
      1         22           0        0.000000    0.000000    0.000000
 ---------------------------------------------------------------------

 SCF Done:  E(ROHF) =  -57.7480271085     A.U. after   21 cycles
 E2 =    -0.4133170486D+00 EUMP2 =    -0.58161344157089D+02
 CCSD(T)
 CCSD(T)= -0.58198719905D+02

 Unable to determine electronic state:  an orbital has unidentified symmetry.
 Alpha  occ. eigenvalues --   -3.02194  -1.88618  -1.88618  -1.88618  -0.43861
 Alpha  occ. eigenvalues --   -0.43861  -0.23135
 Alpha virt. eigenvalues --    0.01474   0.01474   0.01474   0.02386   0.05313
 Alpha virt. eigenvalues --    0.05313   0.05313   0.05417   0.05417   0.05417
 Alpha virt. eigenvalues --    0.05465   0.05465   0.12270   0.12477   0.12477

 Mulliken charges and spin densities:
               1          2
     1  Ti   0.000000   2.000000
 Sum of Mulliken charges =   0.00000   2.00000

 Dipole moment (field-independent basis, Debye):
    X=              0.0000    Y=              0.0000    Z=             -0.0000  Tot=              0.0000
 Quadrupole moment (field-independent basis, Debye-Ang):
   XX=            -21.7716   YY=            -21.7716   ZZ=            -21.7716
   XY=             -0.0000   XZ=             -0.0000   YZ=              0.0000

 1\1\GINC-C464-113\SP\ROCCSD(T)-Full\Gen\Ti1(3)\AANNABE\13-Mar-2018\0\\
 #P ROCCSD(T)=(maxcyc=150, Full)/Gen 5d 7f SCF=(maxcycles=300, NoVarAcc
 , VShift=200) MaxDisk=100GB Pop=Regular Pseudo=Read Guess=Read\\Ti\\0,
 3\Ti,0,0.,0.,0.\\Version=ES64L-G16RevA.03\HF=-57.7480271\MP2=-58.16134
 42\MP3=-58.1825563\PUHF=-57.7480271\PMP2-0=-58.1613442\MP4SDQ=-58.1829
 203\CCSD=-58.1833306\CCSD(T)=-58.1987199\RMSD=9.458e-09\PG=OH [O(Ti1)]
 \\@

 Normal termination of Gaussian 16 at Tue Mar 13 12:27:44 2018.
