 Gaussian 16, Revision A.03,
 Gaussian 16:  ES64L-G16RevA.03 25-Dec-2016

 ----------------------------------------------------------------------
 #P ROCCSD(T)=(maxcyc=150, Window=(7,0), SaveAmplitudes, ReadAmplitudes
 )/Gen 5d 7f SCF=(maxcycles=300) Integral(NoXCTest, DKHSO) MaxDisk=500G
 B Pop=Regular Guess=Read
 ----------------------------------------------------------------------

 ---
 CrO
 ---
 Symbolic Z-matrix:
 Charge =  0 Multiplicity = 5

                         Standard orientation:
 ---------------------------------------------------------------------
 Center     Atomic      Atomic             Coordinates (Angstroms)
 Number     Number       Type             X           Y           Z
 ---------------------------------------------------------------------
      1         24           0        0.000000    0.000000    0.375000
      2          8           0        0.000000    0.000000   -1.125000
 ---------------------------------------------------------------------

 SCF Done:  E(ROHF) =  -1124.50161270     A.U. after   22 cycles
 E2 =    -0.8981540375D+00 EUMP2 =    -0.11253997667334D+04
 CCSD(T)
 CCSD(T)= -0.11254137869D+04

 Unable to determine electronic state:  an orbital has unidentified symmetry.
 Alpha  occ. eigenvalues -- -222.27582 -26.87324 -22.50709 -22.50620 -22.50129
 Alpha  occ. eigenvalues --  -20.51710  -3.70717  -2.46976  -2.43508  -2.41370
 Alpha  occ. eigenvalues --   -1.19834  -0.63364  -0.57444  -0.55932  -0.50427
 Alpha  occ. eigenvalues --   -0.48107  -0.39658  -0.30085
 Alpha virt. eigenvalues --    0.00714   0.01072   0.01770   0.02761   0.04214
 Alpha virt. eigenvalues --    0.04502   0.05336   0.05338   0.05474   0.05773
 Alpha virt. eigenvalues --    0.06113   0.06477   0.10598   0.13313   0.13325

 Mulliken charges and spin densities:
               1          2
     1  Cr   0.992344   3.885910
     2  O   -0.992344   0.114090
 Sum of Mulliken charges =  -0.00000   4.00000

 Dipole moment (field-independent basis, Debye):
    X=             -0.0000    Y=              0.0000    Z=              4.4003  Tot=              4.4003
 Quadrupole moment (field-independent basis, Debye-Ang):
   XX=            -21.1991   YY=            -20.1011   ZZ=            -24.9076
   XY=              0.0000   XZ=              0.0000   YZ=             -0.0000

 1\1\GINC-C484-093\SP\ROCCSD(T)-RW\Gen\Cr1O1(5)\AANNABE\14-Mar-2018\0\\
 #P ROCCSD(T)=(maxcyc=150, Window=(7,0), SaveAmplitudes, ReadAmplitudes
 )/Gen 5d 7f SCF=(maxcycles=300) Integral(NoXCTest, DKHSO) MaxDisk=500G
 B Pop=Regular Guess=Read\\CrO\\0,5\Cr,0,0.,0.,0.\O,0,0.,0.,1.5\\Versio
 n=ES64L-G16RevA.03\HF=-1124.5016127\MP2=-1125.3997667\PUHF=-1124.50161
 27\PMP2-0=-1125.3997667\CCSD=-1125.365606\CCSD(T)=-1125.4137869\RMSD=5
 .448e-09\PG=C*V [C*(O1Cr1)]\\@

 Normal termination of Gaussian 16 at Wed Mar 14 15:26:31 2018.
