 Gaussian 16, Revision A.03,
 Gaussian 16:  ES64L-G16RevA.03 25-Dec-2016

 ----------------------------------------------------------------------
 #P ROCCSD(T)=(MaxCyc=150, Full)/Gen SCF=(maxcycle=400) Pseudo=Read Int
 egral(NoXCTest) Pop=Regular MaxDisk=500GB Guess=Read IOp(5/15=2)
 ----------------------------------------------------------------------

 ---
 CuO
 ---
 Symbolic Z-matrix:
 Charge =  0 Multiplicity = 2

                         Standard orientation:
 ---------------------------------------------------------------------
 Center     Atomic      Atomic             Coordinates (Angstroms)
 Number     Number       Type             X           Y           Z
 ---------------------------------------------------------------------
      1         29           0        0.000000    0.000000    0.302703
      2          8           0        0.000000    0.000000   -1.097297
 ---------------------------------------------------------------------

 SCF Done:  E(ROHF) =  -211.843429954     A.U. after   20 cycles
 E2 =    -0.1423695867D+01 EUMP2 =    -0.21326712582111D+03
 CCSD(T)
 CCSD(T)= -0.21319204049D+03

 Unable to determine electronic state:  an orbital has unidentified symmetry.
 Alpha  occ. eigenvalues --   -5.03655  -3.46213  -3.43653  -3.42591  -1.29923
 Alpha  occ. eigenvalues --   -0.69562  -0.65926  -0.62608  -0.57083  -0.57078
 Alpha  occ. eigenvalues --   -0.48535  -0.43177  -0.37068
 Alpha virt. eigenvalues --   -0.00223   0.02705   0.02844   0.03569   0.04862
 Alpha virt. eigenvalues --    0.09290   0.09685   0.12119   0.13736   0.13750
 Alpha virt. eigenvalues --    0.14101   0.14236   0.14498   0.19055   0.21842

 Mulliken charges and spin densities:
               1          2
     1  Cu   0.675714   0.096044
     2  O   -0.675714   0.903956
 Sum of Mulliken charges =  -0.00000   1.00000

 Dipole moment (field-independent basis, Debye):
    X=              0.0000    Y=              0.0000    Z=              4.4041  Tot=              4.4041
 Quadrupole moment (field-independent basis, Debye-Ang):
   XX=            -16.4755   YY=            -17.9637   ZZ=            -18.2805
   XY=              0.0000   XZ=              0.0000   YZ=              0.0000

 \\#P ROCCSD(T)=(MaxCyc=150, Full)/Gen SCF=(maxcycle=400) Pseudo=Read I
 1258\MP4SDQ=-213.222559\CCSD=-213.1366794\CCSD(T)=-213.1920405\RMSD=2.
 Normal termination of Gaussian 16 at Mon Mar 26 02:11:23 2018.
