 Gaussian 16, Revision A.03,
 Gaussian 16:  ES64L-G16RevA.03 25-Dec-2016

 ----------------------------------------------------------------------
 #P ROCCSD(T)=(MaxCyc=150, Full)/Gen SCF=(maxcycle=400) Pseudo=Read Int
 egral(NoXCTest) Pop=Regular MaxDisk=500GB Guess=Read IOp(5/15=2)
 ----------------------------------------------------------------------

 ---
 CuO
 ---
 Symbolic Z-matrix:
 Charge =  0 Multiplicity = 2

                         Standard orientation:
 ---------------------------------------------------------------------
 Center     Atomic      Atomic             Coordinates (Angstroms)
 Number     Number       Type             X           Y           Z
 ---------------------------------------------------------------------
      1         29           0        0.000000    0.000000    0.302703
      2          8           0        0.000000    0.000000   -1.097297
 ---------------------------------------------------------------------

 SCF Done:  E(ROHF) =  -211.838404495     A.U. after   20 cycles
 E2 =    -0.1359738104D+01 EUMP2 =    -0.21319814259932D+03
 CCSD(T)
 CCSD(T)= -0.21312592081D+03

 Unable to determine electronic state:  an orbital has unidentified symmetry.
 Alpha  occ. eigenvalues --   -5.03699  -3.46261  -3.43692  -3.42625  -1.29980
 Alpha  occ. eigenvalues --   -0.69555  -0.65917  -0.62623  -0.57078  -0.57072
 Alpha  occ. eigenvalues --   -0.48531  -0.43173  -0.37088
 Alpha virt. eigenvalues --   -0.00204   0.03056   0.03231   0.03957   0.05191
 Alpha virt. eigenvalues --    0.10785   0.11287   0.13677   0.19307   0.19990
 Alpha virt. eigenvalues --    0.20011   0.21289   0.21536   0.22197   0.26017

 Mulliken charges and spin densities:
               1          2
     1  Cu   0.885810   0.087488
     2  O   -0.885810   0.912512
 Sum of Mulliken charges =   0.00000   1.00000

 Dipole moment (field-independent basis, Debye):
    X=              0.0000    Y=              0.0000    Z=              4.4187  Tot=              4.4187
 Quadrupole moment (field-independent basis, Debye-Ang):
   XX=            -16.4829   YY=            -17.9871   ZZ=            -18.2695
   XY=              0.0000   XZ=              0.0000   YZ=              0.0000

 \\#P ROCCSD(T)=(MaxCyc=150, Full)/Gen SCF=(maxcycle=400) Pseudo=Read I
 .1981426\MP4SDQ=-213.1601556\CCSD=-213.0732685\CCSD(T)=-213.1259208\RM
 Normal termination of Gaussian 16 at Sun Mar 25 23:48:10 2018.
