 Gaussian 16, Revision A.03,
 Gaussian 16:  ES64L-G16RevA.03 25-Dec-2016

 ----------------------------------------------------------------------
 #P ROCCSD(T)=(maxcyc=150, Full, SaveAmplitudes, ReadAmplitudes)/Gen 5d
  7f SCF=(maxcycles=300) Integral(NoXCTest) MaxDisk=500GB Pop=Regular P
 seudo=Read Guess=Read
 ----------------------------------------------------------------------

 ---
 TiO
 ---
 Symbolic Z-matrix:
 Charge =  0 Multiplicity = 3

                         Standard orientation:
 ---------------------------------------------------------------------
 Center     Atomic      Atomic             Coordinates (Angstroms)
 Number     Number       Type             X           Y           Z
 ---------------------------------------------------------------------
      1         22           0        0.000000    0.000000    0.506667
      2          8           0        0.000000    0.000000   -1.393333
 ---------------------------------------------------------------------

 SCF Done:  E(ROHF) =  -73.4916827260     A.U. after   20 cycles
 E2 =    -0.7944215021D+00 EUMP2 =    -0.74286104228028D+02
 CCSD(T)
 CCSD(T)= -0.74320109326D+02

 Unable to determine electronic state:  an orbital has unidentified symmetry.
 Alpha  occ. eigenvalues --   -3.10912  -1.97377  -1.97377  -1.92798  -1.11127
 Alpha  occ. eigenvalues --   -0.52761  -0.41200  -0.37229  -0.37229  -0.29974
 Alpha virt. eigenvalues --   -0.00897  -0.00897  -0.00049   0.01854   0.02873
 Alpha virt. eigenvalues --    0.02873   0.03166   0.03515   0.03675   0.04406
 Alpha virt. eigenvalues --    0.04406   0.04787   0.06585   0.09714   0.09943

 Mulliken charges and spin densities:
               1          2
     1  Ti   1.008347   1.978835
     2  O   -1.008347   0.021165
 Sum of Mulliken charges =  -0.00000   2.00000

 Dipole moment (field-independent basis, Debye):
    X=              0.0000    Y=              0.0000    Z=              7.1389  Tot=              7.1389
 Quadrupole moment (field-independent basis, Debye-Ang):
   XX=            -21.6377   YY=            -21.6377   ZZ=            -30.3361
   XY=              0.0000   XZ=              0.0000   YZ=              0.0000

 \\#P ROCCSD(T)=(maxcyc=150, Full, SaveAmplitudes, ReadAmplitudes)/Gen
 -0=-74.2861042\CCSD=-74.2605366\CCSD(T)=-74.3201093\RMSD=1.810e-09\PG=
 Normal termination of Gaussian 16 at Tue Mar 13 02:36:54 2018.
