 Gaussian 16, Revision A.03,
 Gaussian 16:  ES64L-G16RevA.03 25-Dec-2016

 ----------------------------------------------------------------------
 #P ROCCSD(T)=(maxcyc=150, Full, SaveAmplitudes, ReadAmplitudes)/Gen 5d
  7f SCF=(maxcycles=300, VShift=400) Integral(NoXCTest) MaxDisk=500GB P
 op=Full Pseudo=Read Guess=Read IOp(5/15=2)
 ----------------------------------------------------------------------

 ---
 CrO
 ---
 Symbolic Z-matrix:
 Charge =  0 Multiplicity = 5

                         Standard orientation:
 ---------------------------------------------------------------------
 Center     Atomic      Atomic             Coordinates (Angstroms)
 Number     Number       Type             X           Y           Z
 ---------------------------------------------------------------------
      1         24           0        0.000000    0.000000    0.475000
      2          8           0        0.000000    0.000000   -1.425000
 ---------------------------------------------------------------------

 SCF Done:  E(ROHF) =  -101.473910336     A.U. after   79 cycles
 E2 =    -0.8464672582D+00 EUMP2 =    -0.10232037759439D+03
 CCSD(T)
 CCSD(T)= -0.10237740372D+03

 Unable to determine electronic state:  an orbital has unidentified symmetry.
 Alpha  occ. eigenvalues --   -3.76782  -2.49788  -2.44741  -2.43964  -1.08825
 Alpha  occ. eigenvalues --   -0.59069  -0.56853  -0.56649  -0.53926  -0.33496
 Alpha  occ. eigenvalues --   -0.32985  -0.31939
 Alpha virt. eigenvalues --   -0.05162   0.00554   0.01205   0.01587   0.03698
 Alpha virt. eigenvalues --    0.04799   0.05995   0.07337   0.07341   0.07626
 Alpha virt. eigenvalues --    0.08319   0.08576   0.12599   0.12637   0.15510

 Mulliken charges and spin densities:
               1          2
     1  Cr   1.119571   3.965919
     2  O   -1.119571   0.034081
 Sum of Mulliken charges =  -0.00000   4.00000

 Dipole moment (field-independent basis, Debye):
    X=              0.0000    Y=              0.0000    Z=             10.0689  Tot=             10.0689
 Quadrupole moment (field-independent basis, Debye-Ang):
   XX=            -19.7991   YY=            -19.1114   ZZ=            -24.9650
   XY=              0.0000   XZ=              0.0000   YZ=              0.0000

 \\#P ROCCSD(T)=(maxcyc=150, Full, SaveAmplitudes, ReadAmplitudes)/Gen
 326887\CCSD=-102.3232628\CCSD(T)=-102.3774037\RMSD=8.070e-09\PG=C*V [C
 Normal termination of Gaussian 16 at Fri Apr  6 11:36:04 2018.
