 Gaussian 16, Revision A.03,
 Gaussian 16:  ES64L-G16RevA.03 25-Dec-2016

 ----------------------------------------------------------------------
 #P ROCCSD(T)=(maxcyc=150, Full)/Gen 5d 7f SCF=(maxcycles=300, NoVarAcc
 , VShift=200) MaxDisk=100GB Pop=Regular Pseudo=Read Guess=Read
 ----------------------------------------------------------------------

 --
 Mn
 --
 Symbolic Z-matrix:
 Charge =  0 Multiplicity = 6

                         Standard orientation:
 ---------------------------------------------------------------------
 Center     Atomic      Atomic             Coordinates (Angstroms)
 Number     Number       Type             X           Y           Z
 ---------------------------------------------------------------------
      1         25           0        0.000000    0.000000    0.000000
 ---------------------------------------------------------------------

 SCF Done:  E(ROHF) =  -103.504546549     A.U. after   21 cycles
 E2 =    -0.5929278503D+00 EUMP2 =    -0.10409747439927D+03
 CCSD(T)
 CCSD(T)= -0.10411786614D+03

 The electronic state is 6-A1G.
 Alpha  occ. eigenvalues --   -4.15113  -2.79789  -2.79789  -2.79789  -0.62900
 Alpha  occ. eigenvalues --   -0.62900  -0.62900  -0.62900  -0.62900  -0.26813
 Alpha virt. eigenvalues --    0.01737   0.01737   0.01737   0.02542   0.05827
 Alpha virt. eigenvalues --    0.05827   0.05827   0.06096   0.06096   0.06096
 Alpha virt. eigenvalues --    0.06096   0.06096   0.13387   0.19362   0.19362

 Mulliken charges and spin densities:
               1          2
     1  Mn  -0.000000   5.000000
 Sum of Mulliken charges =  -0.00000   5.00000

 Dipole moment (field-independent basis, Debye):
    X=              0.0000    Y=              0.0000    Z=              0.0000  Tot=              0.0000
 Quadrupole moment (field-independent basis, Debye-Ang):
   XX=            -18.8412   YY=            -18.8412   ZZ=            -18.8412
   XY=             -0.0000   XZ=              0.0000   YZ=             -0.0000

 1\1\GINC-C401-023\SP\ROCCSD(T)-Full\Gen\Mn1(6)\AANNABE\12-Mar-2018\0\\
 #P ROCCSD(T)=(maxcyc=150, Full)/Gen 5d 7f SCF=(maxcycles=300, NoVarAcc
 , VShift=200) MaxDisk=100GB Pop=Regular Pseudo=Read Guess=Read\\Mn\\0,
 6\Mn,0,0.,0.,0.\\Version=ES64L-G16RevA.03\State=6-A1G\HF=-103.5045465\
 MP2=-104.0974744\MP3=-104.097035\PUHF=-103.5045465\PMP2-0=-104.0974744
 \MP4SDQ=-104.0994069\CCSD=-104.0996006\CCSD(T)=-104.1178661\RMSD=5.287
 e-09\PG=OH [O(Mn1)]\\@

 Normal termination of Gaussian 16 at Mon Mar 12 13:34:12 2018.
