 Gaussian 16, Revision A.03,
 Gaussian 16:  ES64L-G16RevA.03 25-Dec-2016

 ----------------------------------------------------------------------
 #P ROCCSD(T)=(maxcyc=150, Full, SaveAmplitudes, ReadAmplitudes)/Gen 5d
  7f SCF=(maxcycles=300) Integral(NoXCTest) MaxDisk=500GB Pop=Regular P
 seudo=Read Guess=Read
 ----------------------------------------------------------------------

 ---
 ScO
 ---
 Symbolic Z-matrix:
 Charge =  0 Multiplicity = 2

                         Standard orientation:
 ---------------------------------------------------------------------
 Center     Atomic      Atomic             Coordinates (Angstroms)
 Number     Number       Type             X           Y           Z
 ---------------------------------------------------------------------
      1         21           0        0.000000    0.000000    0.331034
      2          8           0        0.000000    0.000000   -0.868966
 ---------------------------------------------------------------------

 SCF Done:  E(ROHF) =  -61.7550708611     A.U. after   17 cycles
 E2 =    -0.6837176089D+00 EUMP2 =    -0.62438788469996D+02
 CCSD(T)
 CCSD(T)= -0.62467155479D+02

 The electronic state is 2-SG.
 Alpha  occ. eigenvalues --   -2.64409  -1.82339  -1.52169  -1.52169  -1.04429
 Alpha  occ. eigenvalues --   -0.63591  -0.63591  -0.47580  -0.18001
 Alpha virt. eigenvalues --    0.01007   0.01007   0.01662   0.02517   0.02826
 Alpha virt. eigenvalues --    0.02826   0.02863   0.02863   0.02884   0.04347
 Alpha virt. eigenvalues --    0.04347   0.06540   0.08171   0.08171   0.08395

 Mulliken charges and spin densities:
               1          2
     1  Sc   0.810226   1.018475
     2  O   -0.810226  -0.018475
 Sum of Mulliken charges =  -0.00000   1.00000

 Dipole moment (field-independent basis, Debye):
    X=              0.0000    Y=              0.0000    Z=             -1.1344  Tot=              1.1344
 Quadrupole moment (field-independent basis, Debye-Ang):
   XX=            -23.3678   YY=            -23.3678   ZZ=            -28.7943
   XY=              0.0000   XZ=              0.0000   YZ=              0.0000

 \\#P ROCCSD(T)=(maxcyc=150, Full, SaveAmplitudes, ReadAmplitudes)/Gen
 550709\PMP2-0=-62.4387885\CCSD=-62.4382927\CCSD(T)=-62.4671555\RMSD=1.
 Normal termination of Gaussian 16 at Tue Feb 27 14:15:40 2018.
