 Gaussian 16, Revision A.03,
 Gaussian 16:  ES64L-G16RevA.03 25-Dec-2016

 ----------------------------------------------------------------------
 #P ROCCSD(T)=(MaxCyc=150, Full)/Gen SCF=(maxcycle=400) Pseudo=Read Int
 egral(NoXCTest) Pop=Regular MaxDisk=500GB Guess=Read IOp(5/15=2)
 ----------------------------------------------------------------------

 ---
 CuO
 ---
 Symbolic Z-matrix:
 Charge =  0 Multiplicity = 2

                         Standard orientation:
 ---------------------------------------------------------------------
 Center     Atomic      Atomic             Coordinates (Angstroms)
 Number     Number       Type             X           Y           Z
 ---------------------------------------------------------------------
      1         29           0        0.000000    0.000000    0.410811
      2          8           0        0.000000    0.000000   -1.489189
 ---------------------------------------------------------------------

 SCF Done:  E(ROHF) =  -211.962266831     A.U. after   19 cycles
 E2 =    -0.1359727980D+01 EUMP2 =    -0.21332199481098D+03
 CCSD(T)
 CCSD(T)= -0.21325713729D+03

 Unable to determine electronic state:  an orbital has unidentified symmetry.
 Alpha  occ. eigenvalues --   -4.95861  -3.36987  -3.36945  -3.36812  -1.19310
 Alpha  occ. eigenvalues --   -0.54963  -0.52924  -0.52469  -0.51955  -0.51955
 Alpha  occ. eigenvalues --   -0.48290  -0.41172  -0.40712
 Alpha virt. eigenvalues --   -0.01762   0.02414   0.02540   0.03339   0.04340
 Alpha virt. eigenvalues --    0.08524   0.08742   0.11378   0.13144   0.13149
 Alpha virt. eigenvalues --    0.14538   0.14604   0.15077   0.18738   0.21261

 Mulliken charges and spin densities:
               1          2
     1  Cu   0.761034   0.010296
     2  O   -0.761034   0.989704
 Sum of Mulliken charges =   0.00000   1.00000

 Dipole moment (field-independent basis, Debye):
    X=              0.0000    Y=              0.0000    Z=              6.3753  Tot=              6.3753
 Quadrupole moment (field-independent basis, Debye-Ang):
   XX=            -15.3230   YY=            -16.8885   ZZ=            -21.6352
   XY=              0.0000   XZ=              0.0000   YZ=              0.0000

 \\#P ROCCSD(T)=(MaxCyc=150, Full)/Gen SCF=(maxcycle=400) Pseudo=Read I
 .3219948\MP4SDQ=-213.2799132\CCSD=-213.2103099\CCSD(T)=-213.2571373\RM
 Normal termination of Gaussian 16 at Mon Mar 26 02:21:09 2018.
