 Gaussian 16, Revision A.03,
 Gaussian 16:  ES64L-G16RevA.03 25-Dec-2016

 ----------------------------------------------------------------------
 #P ROCCSD(T)=(MaxCyc=150, Full)/Gen SCF=(maxcycle=400) Pseudo=Read Int
 egral(NoXCTest) Pop=Regular MaxDisk=500GB Guess=Read IOp(5/15=2)
 ----------------------------------------------------------------------

 ---
 CuO
 ---
 Symbolic Z-matrix:
 Charge =  0 Multiplicity = 2

                         Standard orientation:
 ---------------------------------------------------------------------
 Center     Atomic      Atomic             Coordinates (Angstroms)
 Number     Number       Type             X           Y           Z
 ---------------------------------------------------------------------
      1         29           0        0.000000    0.000000    0.410811
      2          8           0        0.000000    0.000000   -1.489189
 ---------------------------------------------------------------------

 SCF Done:  E(ROHF) =  -211.957725536     A.U. after   17 cycles
 E2 =    -0.1296189814D+01 EUMP2 =    -0.21325391535070D+03
 CCSD(T)
 CCSD(T)= -0.21319200098D+03

 Unable to determine electronic state:  an orbital has unidentified symmetry.
 Alpha  occ. eigenvalues --   -4.95911  -3.37035  -3.36988  -3.36854  -1.19351
 Alpha  occ. eigenvalues --   -0.54963  -0.52928  -0.52482  -0.51958  -0.51958
 Alpha  occ. eigenvalues --   -0.48288  -0.41168  -0.40718
 Alpha virt. eigenvalues --   -0.01766   0.02700   0.02854   0.03787   0.04571
 Alpha virt. eigenvalues --    0.09947   0.10226   0.13413   0.19212   0.19220
 Alpha virt. eigenvalues --    0.19425   0.20144   0.21561   0.22640   0.25943

 Mulliken charges and spin densities:
               1          2
     1  Cu   0.800594   0.010652
     2  O   -0.800594   0.989348
 Sum of Mulliken charges =  -0.00000   1.00000

 Dipole moment (field-independent basis, Debye):
    X=              0.0000    Y=              0.0000    Z=              6.3908  Tot=              6.3908
 Quadrupole moment (field-independent basis, Debye-Ang):
   XX=            -15.3299   YY=            -16.9132   ZZ=            -21.6244
   XY=              0.0000   XZ=              0.0000   YZ=              0.0000

 \\#P ROCCSD(T)=(MaxCyc=150, Full)/Gen SCF=(maxcycle=400) Pseudo=Read I
 .2539154\MP4SDQ=-213.2178471\CCSD=-213.1476853\CCSD(T)=-213.192001\RMS
 Normal termination of Gaussian 16 at Sun Mar 25 23:50:57 2018.
