 Gaussian 16, Revision A.03,
 Gaussian 16:  ES64L-G16RevA.03 25-Dec-2016

 ----------------------------------------------------------------------
 #P ROCCSD(T)=(maxcyc=150, Full)/Gen 5d 7f SCF=(maxcycles=300, NoVarAcc
 , VShift=200) MaxDisk=100GB Pop=Regular Pseudo=Read Guess=Read
 ----------------------------------------------------------------------

 --
 Mn
 --
 Symbolic Z-matrix:
 Charge =  0 Multiplicity = 6

                         Standard orientation:
 ---------------------------------------------------------------------
 Center     Atomic      Atomic             Coordinates (Angstroms)
 Number     Number       Type             X           Y           Z
 ---------------------------------------------------------------------
      1         25           0        0.000000    0.000000    0.000000
 ---------------------------------------------------------------------

 SCF Done:  E(ROHF) =  -103.504641464     A.U. after   19 cycles
 E2 =    -0.6059519858D+00 EUMP2 =    -0.10411059344983D+03
 CCSD(T)
 CCSD(T)= -0.10412917339D+03

 The electronic state is 6-A1G.
 Alpha  occ. eigenvalues --   -4.15118  -2.79789  -2.79789  -2.79789  -0.62900
 Alpha  occ. eigenvalues --   -0.62900  -0.62900  -0.62900  -0.62900  -0.26813
 Alpha virt. eigenvalues --    0.01705   0.01705   0.01705   0.02124   0.05597
 Alpha virt. eigenvalues --    0.05597   0.05597   0.05597   0.05597   0.05603
 Alpha virt. eigenvalues --    0.05603   0.05603   0.10429   0.17438   0.17438

 Mulliken charges and spin densities:
               1          2
     1  Mn  -0.000000   5.000000
 Sum of Mulliken charges =  -0.00000   5.00000

 Dipole moment (field-independent basis, Debye):
    X=              0.0000    Y=              0.0000    Z=              0.0000  Tot=              0.0000
 Quadrupole moment (field-independent basis, Debye-Ang):
   XX=            -18.8404   YY=            -18.8404   ZZ=            -18.8404
   XY=              0.0000   XZ=             -0.0000   YZ=             -0.0000

 1\1\GINC-C401-023\SP\ROCCSD(T)-Full\Gen\Mn1(6)\AANNABE\12-Mar-2018\0\\
 #P ROCCSD(T)=(maxcyc=150, Full)/Gen 5d 7f SCF=(maxcycles=300, NoVarAcc
 , VShift=200) MaxDisk=100GB Pop=Regular Pseudo=Read Guess=Read\\Mn\\0,
 6\Mn,0,0.,0.,0.\\Version=ES64L-G16RevA.03\State=6-A1G\HF=-103.5046415\
 MP2=-104.1105934\MP3=-104.1081516\PUHF=-103.5046415\PMP2-0=-104.110593
 4\MP4SDQ=-104.1102214\CCSD=-104.1104917\CCSD(T)=-104.1291734\RMSD=7.23
 2e-09\PG=OH [O(Mn1)]\\@

 Normal termination of Gaussian 16 at Mon Mar 12 14:29:28 2018.
