 Gaussian 16, Revision A.03,
 Gaussian 16:  ES64L-G16RevA.03 25-Dec-2016

 ----------------------------------------------------------------------
 #P ROCCSD(T)=(maxcyc=150, Full, SaveAmplitudes, ReadAmplitudes)/Gen 5d
  7f SCF=(maxcycles=300) Integral(NoXCTest) MaxDisk=500GB Pop=Regular P
 seudo=Read Guess=Read IOp(5/15=2)
 ----------------------------------------------------------------------

 ---
 MnO
 ---
 Symbolic Z-matrix:
 Charge =  0 Multiplicity = 6

                         Standard orientation:
 ---------------------------------------------------------------------
 Center     Atomic      Atomic             Coordinates (Angstroms)
 Number     Number       Type             X           Y           Z
 ---------------------------------------------------------------------
      1         25           0        0.000000    0.000000    0.290909
      2          8           0        0.000000    0.000000   -0.909091
 ---------------------------------------------------------------------

 SCF Done:  E(ROHF) =  -118.857395386     A.U. after   29 cycles
 E2 =    -0.9345235844D+00 EUMP2 =    -0.11979191897056D+03
 CCSD(T)
 CCSD(T)= -0.11979364832D+03

 The electronic state is 6-SG.
 Alpha  occ. eigenvalues --   -4.13407  -2.80450  -2.76514  -2.76514  -1.30035
 Alpha  occ. eigenvalues --   -0.78629  -0.78629  -0.66137  -0.59741  -0.59741
 Alpha  occ. eigenvalues --   -0.38301  -0.38301  -0.28887
 Alpha virt. eigenvalues --    0.02318   0.02654   0.02654   0.02964   0.07253
 Alpha virt. eigenvalues --    0.08162   0.08162   0.08827   0.08827   0.09476
 Alpha virt. eigenvalues --    0.09476   0.10872   0.11709   0.17349   0.25329

 Mulliken charges and spin densities:
               1          2
     1  Mn   0.620381   4.712874
     2  O   -0.620381   0.287126
 Sum of Mulliken charges =  -0.00000   5.00000

 Dipole moment (field-independent basis, Debye):
    X=              0.0000    Y=              0.0000    Z=              1.2819  Tot=              1.2819
 Quadrupole moment (field-independent basis, Debye-Ang):
   XX=            -20.2042   YY=            -20.2042   ZZ=            -22.3450
   XY=              0.0000   XZ=              0.0000   YZ=              0.0000

 \\#P ROCCSD(T)=(maxcyc=150, Full, SaveAmplitudes, ReadAmplitudes)/Gen
 68068\CCSD=-119.7561849\CCSD(T)=-119.7936483\RMSD=4.436e-09\PG=C*V [C*
 Normal termination of Gaussian 16 at Fri Mar  9 16:36:37 2018.
