 Gaussian 16, Revision A.03,
 Gaussian 16:  ES64L-G16RevA.03 25-Dec-2016

 ----------------------------------------------------------------------
 #P ROCCSD(T)=(maxcyc=150, Full, SaveAmplitudes, ReadAmplitudes)/Gen 5d
  7f SCF=(maxcycles=300) Integral(NoXCTest) MaxDisk=500GB Pop=Regular P
 seudo=Read Guess=Read
 ----------------------------------------------------------------------

 ---
 CrO
 ---
 Symbolic Z-matrix:
 Charge =  0 Multiplicity = 5

                         Standard orientation:
 ---------------------------------------------------------------------
 Center     Atomic      Atomic             Coordinates (Angstroms)
 Number     Number       Type             X           Y           Z
 ---------------------------------------------------------------------
      1         24           0        0.000000    0.000000    0.425000
      2          8           0        0.000000    0.000000   -1.275000
 ---------------------------------------------------------------------

 SCF Done:  E(ROHF) =  -102.001040841     A.U. after   26 cycles
 E2 =    -0.9139897444D+00 EUMP2 =    -0.10291503058526D+03
 CCSD(T)
 CCSD(T)= -0.10295874482D+03

 Unable to determine electronic state:  an orbital has unidentified symmetry.
 Alpha  occ. eigenvalues --   -3.68413  -2.46420  -2.41688  -2.40631  -1.11927
 Alpha  occ. eigenvalues --   -0.55789  -0.55733  -0.53943  -0.49547  -0.36574
 Alpha  occ. eigenvalues --   -0.33783  -0.32938
 Alpha virt. eigenvalues --   -0.03569   0.00747   0.01367   0.01678   0.03129
 Alpha virt. eigenvalues --    0.04554   0.05253   0.05254   0.05671   0.05976
 Alpha virt. eigenvalues --    0.06096   0.06635   0.11168   0.11368   0.13639

 Mulliken charges and spin densities:
               1          2
     1  Cr   1.140167   3.923161
     2  O   -1.140167   0.076839
 Sum of Mulliken charges =  -0.00000   4.00000

 Dipole moment (field-independent basis, Debye):
    X=              0.0000    Y=              0.0000    Z=              8.9138  Tot=              8.9138
 Quadrupole moment (field-independent basis, Debye-Ang):
   XX=            -19.6998   YY=            -18.6414   ZZ=            -23.0337
   XY=              0.0000   XZ=              0.0000   YZ=              0.0000

 \\#P ROCCSD(T)=(maxcyc=150, Full, SaveAmplitudes, ReadAmplitudes)/Gen
 MP2-0=-102.9150306\CCSD=-102.9062998\CCSD(T)=-102.9587448\RMSD=7.417e-
 Normal termination of Gaussian 16 at Tue Mar 13 08:12:01 2018.
