 Gaussian 16, Revision A.03,
 Gaussian 16:  ES64L-G16RevA.03 25-Dec-2016

 ----------------------------------------------------------------------
 #P ROCCSD(T)=(maxcyc=150, Full)/Gen 5d 7f SCF=(maxcycles=300) Integral
 (NoXCTest) MaxDisk=500GB Pop=Regular Pseudo=Read
 ----------------------------------------------------------------------

 ---
 CrH
 ---
 Symbolic Z-matrix:
 Charge =  0 Multiplicity = 6

                         Standard orientation:
 ---------------------------------------------------------------------
 Center     Atomic      Atomic             Coordinates (Angstroms)
 Number     Number       Type             X           Y           Z
 ---------------------------------------------------------------------
      1         24           0        0.000000    0.000000    0.068000
      2          1           0        0.000000    0.000000   -1.632000
 ---------------------------------------------------------------------

 SCF Done:  E(ROHF) =  -86.6943682185     A.U. after   37 cycles
 E2 =    -0.5316887846D+00 EUMP2 =    -0.87226057003090D+02
 CCSD(T)
 CCSD(T)= -0.87222274009D+02

 The electronic state is 6-SG.
 Alpha  occ. eigenvalues --   -3.72196  -2.47702  -2.47702  -2.43100  -0.54535
 Alpha  occ. eigenvalues --   -0.54535  -0.51346  -0.51346  -0.40616  -0.26067
 Alpha virt. eigenvalues --    0.01303   0.01303   0.02272   0.02510   0.05545
 Alpha virt. eigenvalues --    0.05545   0.05744   0.07620   0.07620   0.08052
 Alpha virt. eigenvalues --    0.08052   0.08790   0.10338   0.17797   0.21023

 Mulliken charges and spin densities:
               1          2
     1  Cr   0.461156   4.983967
     2  H   -0.461156   0.016033
 Sum of Mulliken charges =  -0.00000   5.00000

 Dipole moment (field-independent basis, Debye):
    X=              0.0000    Y=              0.0000    Z=              2.2127  Tot=              2.2127
 Quadrupole moment (field-independent basis, Debye-Ang):
   XX=            -17.0403   YY=            -17.0403   ZZ=            -24.1164
   XY=              0.0000   XZ=              0.0000   YZ=              0.0000

 \\#P ROCCSD(T)=(maxcyc=150, Full)/Gen 5d 7f SCF=(maxcycles=300) Integr
 SDQ=-87.2407448\CCSD=-87.2117213\CCSD(T)=-87.222274\RMSD=6.566e-09\PG=
 Normal termination of Gaussian 16 at Tue Feb 13 06:56:00 2018.
