 Gaussian 16, Revision A.03,
 Gaussian 16:  ES64L-G16RevA.03 25-Dec-2016

 ----------------------------------------------------------------------
 #P ROCCSD(T)=(MaxCyc=150, Full)/Gen SCF=(maxcycle=400) Pseudo=Read Int
 egral(NoXCTest) Pop=Regular MaxDisk=500GB Guess=Read IOp(5/15=2)
 ----------------------------------------------------------------------

 ---
 ZnO
 ---
 Symbolic Z-matrix:
 Charge =  0 Multiplicity = 1

                         Standard orientation:
 ---------------------------------------------------------------------
 Center     Atomic      Atomic             Coordinates (Angstroms)
 Number     Number       Type             X           Y           Z
 ---------------------------------------------------------------------
      1         30           0        0.000000    0.000000    0.273684
      2          8           0        0.000000    0.000000   -1.026316
 ---------------------------------------------------------------------

 SCF Done:  E(ROHF) =  -241.060917009     A.U. after    1 cycles
 E2 =    -0.1346158064D+01 EUMP2 =    -0.24240707507393D+03
 CCSD(T)
 CCSD(T)= -0.24233628090D+03

 The electronic state is 1-SG.
 Alpha  occ. eigenvalues --   -5.94271  -4.07752  -4.04675  -4.04675  -1.29461
 Alpha  occ. eigenvalues --   -0.89041  -0.89041  -0.83687  -0.83687  -0.80057
 Alpha  occ. eigenvalues --   -0.43050  -0.43050  -0.39149
 Alpha virt. eigenvalues --   -0.02517   0.03125   0.03125   0.03526   0.04412
 Alpha virt. eigenvalues --    0.10436   0.10436   0.13666   0.18801   0.21376
 Alpha virt. eigenvalues --    0.22708   0.22708   0.25454   0.25454   0.30601

 Mulliken charges and spin densities:
               1          2
     1  Zn   1.319279   0.000000
     2  O   -1.319279   0.000000
 Sum of Mulliken charges =  -0.00000   0.00000

 Dipole moment (field-independent basis, Debye):
    X=              0.0000    Y=              0.0000    Z=              5.6962  Tot=              5.6962
 Quadrupole moment (field-independent basis, Debye-Ang):
   XX=            -17.9918   YY=            -17.9918   ZZ=            -19.5914
   XY=              0.0000   XZ=              0.0000   YZ=              0.0000

 P ROCCSD(T)=(MaxCyc=150, Full)/Gen SCF=(maxcycle=400) Pseudo=Read Inte
 0=-242.4070751\MP4SDQ=-242.33688\CCSD=-242.2888166\CCSD(T)=-242.336280
 Normal termination of Gaussian 16 at Tue Mar 27 11:49:40 2018.
