 Gaussian 16, Revision A.03,
 Gaussian 16:  ES64L-G16RevA.03 25-Dec-2016

 ----------------------------------------------------------------------
 #P ROCCSD(T)=(MaxCyc=150, Full)/Gen SCF=(maxcycle=400) Pseudo=Read Int
 egral(NoXCTest) Pop=Regular MaxDisk=500GB Guess=Read IOp(5/15=2)
 ----------------------------------------------------------------------

 ---
 ZnO
 ---
 Symbolic Z-matrix:
 Charge =  0 Multiplicity = 1

                         Standard orientation:
 ---------------------------------------------------------------------
 Center     Atomic      Atomic             Coordinates (Angstroms)
 Number     Number       Type             X           Y           Z
 ---------------------------------------------------------------------
      1         30           0        0.000000    0.000000    0.273684
      2          8           0        0.000000    0.000000   -1.026316
 ---------------------------------------------------------------------

 SCF Done:  E(ROHF) =  -241.064221136     A.U. after   11 cycles
 E2 =    -0.1415288069D+01 EUMP2 =    -0.24247950920533D+03
 CCSD(T)
 CCSD(T)= -0.24240643328D+03

 The electronic state is 1-SG.
 Alpha  occ. eigenvalues --   -5.94255  -4.07723  -4.04657  -4.04657  -1.29406
 Alpha  occ. eigenvalues --   -0.89035  -0.89035  -0.83680  -0.83680  -0.80039
 Alpha  occ. eigenvalues --   -0.43056  -0.43056  -0.39129
 Alpha virt. eigenvalues --   -0.02509   0.02805   0.02805   0.03232   0.04024
 Alpha virt. eigenvalues --    0.09070   0.09070   0.12455   0.17034   0.17943
 Alpha virt. eigenvalues --    0.18409   0.18409   0.19516   0.19516   0.23083

 Mulliken charges and spin densities:
               1          2
     1  Zn   1.068589   0.000000
     2  O   -1.068589   0.000000
 Sum of Mulliken charges =  -0.00000   0.00000

 Dipole moment (field-independent basis, Debye):
    X=              0.0000    Y=              0.0000    Z=              5.6821  Tot=              5.6821
 Quadrupole moment (field-independent basis, Debye-Ang):
   XX=            -17.9830   YY=            -17.9830   ZZ=            -19.5825
   XY=              0.0000   XZ=              0.0000   YZ=              0.0000

 P ROCCSD(T)=(MaxCyc=150, Full)/Gen SCF=(maxcycle=400) Pseudo=Read Inte
 2-0=-242.4795092\MP4SDQ=-242.4033219\CCSD=-242.3563454\CCSD(T)=-242.40
 Normal termination of Gaussian 16 at Tue Mar 27 14:09:12 2018.
