 Gaussian 16, Revision A.03,
 Gaussian 16:  ES64L-G16RevA.03 25-Dec-2016

 ----------------------------------------------------------------------
 #P ROCCSD(T)=(maxcyc=150, Full, SaveAmplitudes, ReadAmplitudes)/Gen 5d
  7f SCF=(maxcycles=300) Integral(NoXCTest) MaxDisk=500GB Pop=Regular P
 seudo=Read Guess=Read IOp(5/15=2)
 ----------------------------------------------------------------------

 ---
 MnH
 ---
 Symbolic Z-matrix:
 Charge =  0 Multiplicity = 7

                         Standard orientation:
 ---------------------------------------------------------------------
 Center     Atomic      Atomic             Coordinates (Angstroms)
 Number     Number       Type             X           Y           Z
 ---------------------------------------------------------------------
      1         25           0        0.000000    0.000000    0.042308
      2          1           0        0.000000    0.000000   -1.057692
 ---------------------------------------------------------------------

 SCF Done:  E(ROHF) =  -103.881950305     A.U. after   28 cycles
 E2 =    -0.6043394387D+00 EUMP2 =    -0.10448628974339D+03
 CCSD(T)
 CCSD(T)= -0.10450378831D+03

 The electronic state is 7-SG.
 Alpha  occ. eigenvalues --   -4.23913  -2.80288  -2.78705  -2.78705  -0.70001
 Alpha  occ. eigenvalues --   -0.64131  -0.64131  -0.63525  -0.63525  -0.40264
 Alpha  occ. eigenvalues --   -0.22710
 Alpha virt. eigenvalues --    0.01308   0.01308   0.02015   0.03396   0.05768
 Alpha virt. eigenvalues --    0.05768   0.08498   0.08498   0.08633   0.08831
 Alpha virt. eigenvalues --    0.08869   0.08869   0.14236   0.22470   0.22525

 Mulliken charges and spin densities:
               1          2
     1  Mn   0.552731   5.928762
     2  H   -0.552731   0.071238
 Sum of Mulliken charges =  -0.00000   6.00000

 Dipole moment (field-independent basis, Debye):
    X=              0.0000    Y=              0.0000    Z=             -0.7478  Tot=              0.7478
 Quadrupole moment (field-independent basis, Debye-Ang):
   XX=            -16.0554   YY=            -16.0554   ZZ=            -25.5516
   XY=              0.0000   XZ=              0.0000   YZ=              0.0000

 \\#P ROCCSD(T)=(maxcyc=150, Full, SaveAmplitudes, ReadAmplitudes)/Gen
 .4853038\CCSD=-104.4862456\CCSD(T)=-104.5037883\RMSD=3.228e-09\PG=C*V
 Normal termination of Gaussian 16 at Sun Feb 25 20:01:34 2018.
