 Gaussian 16, Revision A.03,
 Gaussian 16:  ES64L-G16RevA.03 25-Dec-2016

 ----------------------------------------------------------------------
 #P ROCCSD(T)=(maxcyc=150, Window=(6,0), SaveAmplitudes, ReadAmplitudes
 )/Gen 5d 7f SCF=(maxcycles=300) Integral(NoXCTest, DKHSO) MaxDisk=500G
 B Pop=Regular Guess=Read IOp(5/15=2)
 ----------------------------------------------------------------------

 ---
 CrH
 ---
 Symbolic Z-matrix:
 Charge =  0 Multiplicity = 6

                         Standard orientation:
 ---------------------------------------------------------------------
 Center     Atomic      Atomic             Coordinates (Angstroms)
 Number     Number       Type             X           Y           Z
 ---------------------------------------------------------------------
      1         24           0        0.000000    0.000000    0.060000
      2          1           0        0.000000    0.000000   -1.440000
 ---------------------------------------------------------------------

 SCF Done:  E(ROHF) =  -1050.19179509     A.U. after   27 cycles
 E2 =    -0.5328090779D+00 EUMP2 =    -0.10507246041652D+04
 CCSD(T)
 CCSD(T)= -0.10507602222D+04

 The electronic state is 6-SG.
 Alpha  occ. eigenvalues -- -222.17349 -26.76517 -22.39935 -22.39935 -22.39885
 Alpha  occ. eigenvalues --   -3.64090  -2.39523  -2.39523  -2.36131  -0.51471
 Alpha  occ. eigenvalues --   -0.51471  -0.48513  -0.48513  -0.42775  -0.25531
 Alpha virt. eigenvalues --    0.01477   0.01477   0.02256   0.02427   0.05778
 Alpha virt. eigenvalues --    0.05778   0.05993   0.07707   0.07707   0.08086
 Alpha virt. eigenvalues --    0.08086   0.08589   0.10257   0.18601   0.21453

 Mulliken charges and spin densities:
               1          2
     1  Cr   0.581437   4.993622
     2  H   -0.581437   0.006378
 Sum of Mulliken charges =  -0.00000   5.00000

 Dipole moment (field-independent basis, Debye):
    X=              0.0000    Y=              0.0000    Z=              1.8639  Tot=              1.8639
 Quadrupole moment (field-independent basis, Debye-Ang):
   XX=            -17.2250   YY=            -17.2250   ZZ=            -22.5234
   XY=              0.0000   XZ=              0.0000   YZ=              0.0000

 1\1\GINC-C505-052\SP\ROCCSD(T)-RW\Gen\Cr1H1(6)\AANNABE\25-Feb-2018\0\\
 #P ROCCSD(T)=(maxcyc=150, Window=(6,0), SaveAmplitudes, ReadAmplitudes
 )/Gen 5d 7f SCF=(maxcycles=300) Integral(NoXCTest, DKHSO) MaxDisk=500G
 B Pop=Regular Guess=Read IOp(5/15=2)\\CrH\\0,6\Cr,0,0.,0.,0.\H,0,0.,0.
 ,1.5\\Version=ES64L-G16RevA.03\State=6-SG\HF=-1050.1917951\MP2=-1050.7
 246042\MP3=-1050.7211622\PUHF=-1050.1917951\PMP2-0=-1050.7246042\MP4SD
 Q=-1050.7323611\CCSD=-1050.7435036\CCSD(T)=-1050.7602222\RMSD=3.859e-0
 9\PG=C*V [C*(H1Cr1)]\\@

 Normal termination of Gaussian 16 at Sun Feb 25 22:54:19 2018.
