 Gaussian 16, Revision A.03,
 Gaussian 16:  ES64L-G16RevA.03 25-Dec-2016

 ----------------------------------------------------------------------
 #P ROCCSD(T)=(MaxCyc=150, FrzINGC)/Gen SCF=(maxcycle=400, vshift=200)
 Integral(DKHSO, NoXCTest) Pop=Regular MaxDisk=500GB Guess=Read IOp(5/1
 5=2)
 ----------------------------------------------------------------------

 ---
 CoH
 ---
 Symbolic Z-matrix:
 Charge =  0 Multiplicity = 3

                         Standard orientation:
 ---------------------------------------------------------------------
 Center     Atomic      Atomic             Coordinates (Angstroms)
 Number     Number       Type             X           Y           Z
 ---------------------------------------------------------------------
      1         27           0        0.000000    0.000000    0.064286
      2          1           0        0.000000    0.000000   -1.735714
 ---------------------------------------------------------------------

 SCF Done:  E(ROHF) =  -1392.35676438     A.U. after   68 cycles
 E2 =    -0.8430954975D+00 EUMP2 =    -0.13931998598748D+04
 CCSD(T)
 CCSD(T)= -0.13931692765D+04

 Unable to determine electronic state:  partially filled degenerate orbitals.
 Alpha  occ. eigenvalues -- -285.59195 -35.28151 -30.05281 -30.05281 -30.05042
 Alpha  occ. eigenvalues --   -4.49951  -2.93852  -2.93852  -2.93740  -0.49625
 Alpha  occ. eigenvalues --   -0.49002  -0.44857  -0.44413  -0.44413  -0.32064
 Alpha virt. eigenvalues --   -0.00576   0.02582   0.02582   0.03543   0.04376
 Alpha virt. eigenvalues --    0.09292   0.09292   0.10084   0.11167   0.11211
 Alpha virt. eigenvalues --    0.11464   0.11464   0.11728   0.18402   0.23948

 Mulliken charges and spin densities:
               1          2
     1  Co   0.387552   1.991207
     2  H   -0.387552   0.008793
 Sum of Mulliken charges =  -0.00000   2.00000

 Dipole moment (field-independent basis, Debye):
    X=              0.0000    Y=              0.0000    Z=              4.9300  Tot=              4.9300
 Quadrupole moment (field-independent basis, Debye-Ang):
   XX=            -14.3177   YY=            -14.3177   ZZ=            -19.8250
   XY=              0.0000   XZ=              0.0000   YZ=              0.0000

 \#P ROCCSD(T)=(MaxCyc=150, FrzINGC)/Gen SCF=(maxcycle=400, vshift=200)
 Normal termination of Gaussian 16 at Sat Apr 21 22:28:09 2018.
