 Gaussian 16, Revision A.03,
 Gaussian 16:  ES64L-G16RevA.03 25-Dec-2016

 ----------------------------------------------------------------------
 #P ROCCSD(T)=(maxcyc=150, Full, SaveAmplitudes, ReadAmplitudes)/Gen 5d
  7f SCF=(maxcycles=300, VShift=400) Integral(NoXCTest) MaxDisk=500GB P
 op=Full Pseudo=Read Guess=Read
 ----------------------------------------------------------------------

 ---
 MnH
 ---
 Symbolic Z-matrix:
 Charge =  0 Multiplicity = 7

                         Standard orientation:
 ---------------------------------------------------------------------
 Center     Atomic      Atomic             Coordinates (Angstroms)
 Number     Number       Type             X           Y           Z
 ---------------------------------------------------------------------
      1         25           0        0.000000    0.000000    0.065385
      2          1           0        0.000000    0.000000   -1.634615
 ---------------------------------------------------------------------

 SCF Done:  E(ROHF) =  -103.794702337     A.U. after   31 cycles
 E2 =    -0.6015732309D+00 EUMP2 =    -0.10439627556802D+03
 CCSD(T)
 CCSD(T)= -0.10441750471D+03

 The electronic state is 7-SG.
 Alpha  occ. eigenvalues --   -4.14662  -2.76894  -2.76894  -2.76710  -0.64597
 Alpha  occ. eigenvalues --   -0.64597  -0.64387  -0.63908  -0.63908  -0.40861
 Alpha  occ. eigenvalues --   -0.26089
 Alpha virt. eigenvalues --    0.01194   0.01194   0.02149   0.02926   0.05063
 Alpha virt. eigenvalues --    0.05063   0.05648   0.05804   0.05804   0.06197
 Alpha virt. eigenvalues --    0.06197   0.09061   0.13345   0.14112   0.18070

 Mulliken charges and spin densities:
               1          2
     1  Mn   0.364106   5.949827
     2  H   -0.364106   0.050173
 Sum of Mulliken charges =  -0.00000   6.00000

 Dipole moment (field-independent basis, Debye):
    X=              0.0000    Y=              0.0000    Z=              1.3044  Tot=              1.3044
 Quadrupole moment (field-independent basis, Debye-Ang):
   XX=            -16.1871   YY=            -16.1871   ZZ=            -26.3929
   XY=              0.0000   XZ=              0.0000   YZ=              0.0000

 \\#P ROCCSD(T)=(maxcyc=150, Full, SaveAmplitudes, ReadAmplitudes)/Gen
 \PUHF=-103.7947023\PMP2-0=-104.3962756\CCSD=-104.4008565\CCSD(T)=-104.
 Normal termination of Gaussian 16 at Thu Apr 19 08:20:31 2018.
