 Gaussian 16, Revision A.03,
 Gaussian 16:  ES64L-G16RevA.03 25-Dec-2016

 ----------------------------------------------------------------------
 #P ROCCSD(T)=(maxcyc=150, Full)/Gen 5d 7f SCF=(maxcycles=300) Integral
 (NoXCTest) MaxDisk=500GB Pop=Regular Pseudo=Read IOp(5/15=2) Guess=Rea
 d
 ----------------------------------------------------------------------

 ---
 ScH
 ---
 Symbolic Z-matrix:
 Charge =  0 Multiplicity = 1

                         Standard orientation:
 ---------------------------------------------------------------------
 Center     Atomic      Atomic             Coordinates (Angstroms)
 Number     Number       Type             X           Y           Z
 ---------------------------------------------------------------------
      1         21           0        0.000000    0.000000    0.059091
      2          1           0        0.000000    0.000000   -1.240909
 ---------------------------------------------------------------------

 SCF Done:  E(ROHF) =  -46.5265991466     A.U. after   12 cycles
 E2 =    -0.4150680365D+00 EUMP2 =    -0.46941667183019D+02
 CCSD(T)
 CCSD(T)= -0.46981460738D+02

 The electronic state is 1-SG.
 Alpha  occ. eigenvalues --   -2.63588  -1.63503  -1.60541  -1.60541  -0.46170
 Alpha  occ. eigenvalues --   -0.21672
 Alpha virt. eigenvalues --    0.01362   0.01362   0.01547   0.02201   0.03483
 Alpha virt. eigenvalues --    0.03912   0.03912   0.03935   0.03935   0.04904
 Alpha virt. eigenvalues --    0.04904   0.04975   0.09278   0.10281   0.10281

 Mulliken charges and spin densities:
               1          2
     1  Sc   0.475785   0.000000
     2  H   -0.475785   0.000000
 Sum of Mulliken charges =  -0.00000   0.00000

 Dipole moment (field-independent basis, Debye):
    X=              0.0000    Y=              0.0000    Z=              0.6789  Tot=              0.6789
 Quadrupole moment (field-independent basis, Debye-Ang):
   XX=            -23.6284   YY=            -23.6284   ZZ=            -23.1482
   XY=              0.0000   XZ=              0.0000   YZ=              0.0000

 P ROCCSD(T)=(maxcyc=150, Full)/Gen 5d 7f SCF=(maxcycles=300) Integral(
 MP2-0=-46.9416672\MP4SDQ=-46.9644796\CCSD=-46.9639018\CCSD(T)=-46.9814
 Normal termination of Gaussian 16 at Tue Feb 13 20:20:22 2018.
