 Gaussian 16, Revision A.03,
 Gaussian 16:  ES64L-G16RevA.03 25-Dec-2016

 ----------------------------------------------------------------------
 #P ROCCSD(T)=(MaxCyc=150, Full)/Gen SCF=(maxcycle=400) Integral(DKHSO,
  NoXCTest) Pop=Regular MaxDisk=500GB
 ----------------------------------------------------------------------

 ---
 FeO
 ---
 Symbolic Z-matrix:
 Charge =  0 Multiplicity = 5

                         Standard orientation:
 ---------------------------------------------------------------------
 Center     Atomic      Atomic             Coordinates (Angstroms)
 Number     Number       Type             X           Y           Z
 ---------------------------------------------------------------------
      1         26           0        0.000000    0.000000    0.376471
      2          8           0        0.000000    0.000000   -1.223529
 ---------------------------------------------------------------------

 SCF Done:  E(ROHF) =  -1346.18528604     A.U. after   33 cycles
 E2 =    -0.1446297917D+01 EUMP2 =    -0.13476315839600D+04
 CCSD(T)
 CCSD(T)= -0.13476419505D+04

 Unable to determine electronic state:  partially filled degenerate orbitals.
 Alpha  occ. eigenvalues -- -263.67451 -32.48015 -27.56282 -27.53718 -27.53718
 Alpha  occ. eigenvalues --  -20.44474  -4.39667  -2.98592  -2.91909  -2.91909
 Alpha  occ. eigenvalues --   -1.13266  -0.68255  -0.68255  -0.64213  -0.64170
 Alpha  occ. eigenvalues --   -0.59392  -0.35495  -0.34997  -0.34997
 Alpha virt. eigenvalues --   -0.04510   0.01893   0.01893   0.02086   0.04024
 Alpha virt. eigenvalues --    0.07327   0.07327   0.08847   0.09611   0.09643
 Alpha virt. eigenvalues --    0.10744   0.10744   0.14238   0.14797   0.25068

 Mulliken charges and spin densities:
               1          2
     1  Fe   1.148591   3.840779
     2  O   -1.148591   0.159221
 Sum of Mulliken charges =  -0.00000   4.00000

 Dipole moment (field-independent basis, Debye):
    X=              0.0000    Y=              0.0000    Z=              8.6424  Tot=              8.6424
 Quadrupole moment (field-independent basis, Debye-Ang):
   XX=            -18.6901   YY=            -18.6901   ZZ=            -22.6423
   XY=              0.0000   XZ=              0.0000   YZ=              0.0000

 \\#P ROCCSD(T)=(MaxCyc=150, Full)/Gen SCF=(maxcycle=400) Integral(DKHS
 1\CCSD=-1347.5931915\CCSD(T)=-1347.6419505\RMSD=6.935e-09\PG=C*V [C*(O
 Normal termination of Gaussian 16 at Thu Mar  1 07:28:03 2018.
