 Gaussian 16, Revision A.03,
 Gaussian 16:  ES64L-G16RevA.03 25-Dec-2016

 ----------------------------------------------------------------------
 #P ROCCSD(T)=(MaxCyc=150, Full)/Gen SCF=(maxcycle=400) Pseudo=Read Int
 egral(NoXCTest) Pop=Regular MaxDisk=500GB Guess=Read
 ----------------------------------------------------------------------

 ---
 FeO
 ---
 Symbolic Z-matrix:
 Charge =  0 Multiplicity = 5

                         Standard orientation:
 ---------------------------------------------------------------------
 Center     Atomic      Atomic             Coordinates (Angstroms)
 Number     Number       Type             X           Y           Z
 ---------------------------------------------------------------------
      1         26           0        0.000000    0.000000    0.305882
      2          8           0        0.000000    0.000000   -0.994118
 ---------------------------------------------------------------------

 SCF Done:  E(ROHF) =  -138.518968361     A.U. after    1 cycles
 E2 =    -0.1085589589D+01 EUMP2 =    -0.13960455795017D+03
 CCSD(T)
 CCSD(T)= -0.13959522065D+03

 Unable to determine electronic state:  partially filled degenerate orbitals.
 Alpha  occ. eigenvalues --   -4.55980  -3.01679  -2.95489  -2.95489  -1.28496
 Alpha  occ. eigenvalues --   -0.76047  -0.76047  -0.62778  -0.61706  -0.58416
 Alpha  occ. eigenvalues --   -0.43247  -0.43247  -0.30739
 Alpha virt. eigenvalues --    0.01649   0.02277   0.02277   0.03045   0.05392
 Alpha virt. eigenvalues --    0.06449   0.06449   0.06661   0.06671   0.07601
 Alpha virt. eigenvalues --    0.07982   0.07982   0.11475   0.15553   0.19584

 Mulliken charges and spin densities:
               1          2
     1  Fe   0.957283   3.749483
     2  O   -0.957283   0.250517
 Sum of Mulliken charges =  -0.00000   4.00000

 Dipole moment (field-independent basis, Debye):
    X=              0.0000    Y=              0.0000    Z=              2.9419  Tot=              2.9419
 Quadrupole moment (field-independent basis, Debye-Ang):
   XX=            -19.3690   YY=            -19.3690   ZZ=            -21.6231
   XY=              0.0000   XZ=              0.0000   YZ=              0.0000

 \\#P ROCCSD(T)=(MaxCyc=150, Full)/Gen SCF=(maxcycle=400) Pseudo=Read I
 =-139.5752659\CCSD=-139.5484377\CCSD(T)=-139.5952206\RMSD=2.316e-09\PG
 Normal termination of Gaussian 16 at Sun Mar 25 02:25:52 2018.
