 Gaussian 16, Revision A.03,
 Gaussian 16:  ES64L-G16RevA.03 25-Dec-2016

 ----------------------------------------------------------------------
 #P ROCCSD(T)=(MaxCyc=150, Full)/Gen SCF=(maxcycle=400) Pseudo=Read Int
 egral(NoXCTest) Pop=Regular MaxDisk=500GB Guess=Read
 ----------------------------------------------------------------------

 ---
 FeO
 ---
 Symbolic Z-matrix:
 Charge =  0 Multiplicity = 5

                         Standard orientation:
 ---------------------------------------------------------------------
 Center     Atomic      Atomic             Coordinates (Angstroms)
 Number     Number       Type             X           Y           Z
 ---------------------------------------------------------------------
      1         26           0        0.000000    0.000000    0.305882
      2          8           0        0.000000    0.000000   -0.994118
 ---------------------------------------------------------------------

 SCF Done:  E(ROHF) =  -138.521013774     A.U. after    1 cycles
 E2 =    -0.1037356725D+01 EUMP2 =    -0.13955837049883D+03
 CCSD(T)
 CCSD(T)= -0.13955120927D+03

 Unable to determine electronic state:  partially filled degenerate orbitals.
 Alpha  occ. eigenvalues --   -4.56152  -3.01697  -2.95480  -2.95480  -1.28532
 Alpha  occ. eigenvalues --   -0.76050  -0.76050  -0.62791  -0.61710  -0.58425
 Alpha  occ. eigenvalues --   -0.43248  -0.43248  -0.30761
 Alpha virt. eigenvalues --    0.01754   0.02507   0.02507   0.03305   0.06018
 Alpha virt. eigenvalues --    0.08030   0.08030   0.09910   0.09940   0.10272
 Alpha virt. eigenvalues --    0.10272   0.10761   0.12636   0.16959   0.26192

 Mulliken charges and spin densities:
               1          2
     1  Fe   0.764605   3.741387
     2  O   -0.764605   0.258613
 Sum of Mulliken charges =  -0.00000   4.00000

 Dipole moment (field-independent basis, Debye):
    X=              0.0000    Y=              0.0000    Z=              2.9553  Tot=              2.9553
 Quadrupole moment (field-independent basis, Debye-Ang):
   XX=            -19.3655   YY=            -19.3655   ZZ=            -21.6398
   XY=              0.0000   XZ=              0.0000   YZ=              0.0000

 \\#P ROCCSD(T)=(MaxCyc=150, Full)/Gen SCF=(maxcycle=400) Pseudo=Read I
 DQ=-139.533836\CCSD=-139.5065375\CCSD(T)=-139.5512093\RMSD=1.364e-09\P
 Normal termination of Gaussian 16 at Sun Mar 25 00:30:58 2018.
