 Gaussian 16, Revision A.03,
 Gaussian 16:  ES64L-G16RevA.03 25-Dec-2016

 ----------------------------------------------------------------------
 #P ROCCSD(T)=(maxcyc=150, Full, SaveAmplitudes, ReadAmplitudes)/Gen 5d
  7f SCF=(maxcycles=300) Integral(NoXCTest) MaxDisk=500GB Pop=Regular P
 seudo=Read Guess=Read IOp(5/15=2)
 ----------------------------------------------------------------------

 ---
 CrH
 ---
 Symbolic Z-matrix:
 Charge =  0 Multiplicity = 6

                         Standard orientation:
 ---------------------------------------------------------------------
 Center     Atomic      Atomic             Coordinates (Angstroms)
 Number     Number       Type             X           Y           Z
 ---------------------------------------------------------------------
      1         24           0        0.000000    0.000000    0.052000
      2          1           0        0.000000    0.000000   -1.248000
 ---------------------------------------------------------------------

 SCF Done:  E(ROHF) =  -86.8210607509     A.U. after   31 cycles
 E2 =    -0.5847552801D+00 EUMP2 =    -0.87405816030966D+02
 CCSD(T)
 CCSD(T)= -0.87436653224D+02

 The electronic state is 6-SG.
 Alpha  occ. eigenvalues --   -3.60936  -2.37129  -2.37129  -2.34548  -0.47826
 Alpha  occ. eigenvalues --   -0.47826  -0.45096  -0.44914  -0.44914  -0.25259
 Alpha virt. eigenvalues --    0.01633   0.01633   0.02087   0.02361   0.06006
 Alpha virt. eigenvalues --    0.06006   0.06117   0.07813   0.07813   0.08106
 Alpha virt. eigenvalues --    0.08106   0.08287   0.10042   0.19311   0.21782

 Mulliken charges and spin densities:
               1          2
     1  Cr   0.680034   5.012520
     2  H   -0.680034  -0.012520
 Sum of Mulliken charges =  -0.00000   5.00000

 Dipole moment (field-independent basis, Debye):
    X=              0.0000    Y=              0.0000    Z=              1.8135  Tot=              1.8135
 Quadrupole moment (field-independent basis, Debye-Ang):
   XX=            -16.6802   YY=            -16.6802   ZZ=            -19.9699
   XY=              0.0000   XZ=              0.0000   YZ=              0.0000

 \\#P ROCCSD(T)=(maxcyc=150, Full, SaveAmplitudes, ReadAmplitudes)/Gen
 \CCSD=-87.4163799\CCSD(T)=-87.4366532\RMSD=6.575e-09\PG=C*V [C*(H1Cr1)
 Normal termination of Gaussian 16 at Sun Feb 25 23:13:17 2018.
