 Gaussian 16, Revision A.03,
 Gaussian 16:  ES64L-G16RevA.03 25-Dec-2016

 ----------------------------------------------------------------------
 #P ROCCSD(T)=(maxcyc=150, Full, SaveAmplitudes, ReadAmplitudes)/Gen 5d
  7f SCF=(maxcycles=300) Integral(NoXCTest) MaxDisk=500GB Pop=Regular P
 seudo=Read Guess=Read
 ----------------------------------------------------------------------

 ---
 CrH
 ---
 Symbolic Z-matrix:
 Charge =  0 Multiplicity = 6

                         Standard orientation:
 ---------------------------------------------------------------------
 Center     Atomic      Atomic             Coordinates (Angstroms)
 Number     Number       Type             X           Y           Z
 ---------------------------------------------------------------------
      1         24           0        0.000000    0.000000    0.044000
      2          1           0        0.000000    0.000000   -1.056000
 ---------------------------------------------------------------------

 SCF Done:  E(ROHF) =  -86.2125359668     A.U. after   34 cycles
 E2 =    -0.6019805389D+00 EUMP2 =    -0.86814516505738D+02
 CCSD(T)
 CCSD(T)= -0.86831948304D+02

 The electronic state is 6-SG.
 Alpha  occ. eigenvalues --   -3.75876  -2.47343  -2.47270  -2.47270  -0.48822
 Alpha  occ. eigenvalues --   -0.41068  -0.41068  -0.38242  -0.38242  -0.25858
 Alpha virt. eigenvalues --    0.01661   0.01661   0.01752   0.02172   0.04684
 Alpha virt. eigenvalues --    0.05471   0.05471   0.05516   0.05516   0.05665
 Alpha virt. eigenvalues --    0.05665   0.06047   0.09278   0.13194   0.16975

 Mulliken charges and spin densities:
               1          2
     1  Cr   0.435420   5.017594
     2  H   -0.435420  -0.017594
 Sum of Mulliken charges =  -0.00000   5.00000

 Dipole moment (field-independent basis, Debye):
    X=              0.0000    Y=              0.0000    Z=              1.6541  Tot=              1.6541
 Quadrupole moment (field-independent basis, Debye-Ang):
   XX=            -16.8841   YY=            -16.8841   ZZ=            -18.3689
   XY=              0.0000   XZ=              0.0000   YZ=              0.0000

 \\#P ROCCSD(T)=(maxcyc=150, Full, SaveAmplitudes, ReadAmplitudes)/Gen
 2536\PMP2-0=-86.8145165\CCSD=-86.8110285\CCSD(T)=-86.8319483\RMSD=1.99
 Normal termination of Gaussian 16 at Sun Feb 25 20:08:10 2018.
