 Gaussian 16, Revision A.03,
 Gaussian 16:  ES64L-G16RevA.03 25-Dec-2016

 ----------------------------------------------------------------------
 #P ROCCSD(T)=(MaxCyc=150, Full)/Gen SCF=(maxcycle=400) Pseudo=Read Int
 egral(NoXCTest) Pop=Regular MaxDisk=500GB Guess=Read IOp(5/15=2)
 ----------------------------------------------------------------------

 ---
 CuH
 ---
 Symbolic Z-matrix:
 Charge =  0 Multiplicity = 1

                         Standard orientation:
 ---------------------------------------------------------------------
 Center     Atomic      Atomic             Coordinates (Angstroms)
 Number     Number       Type             X           Y           Z
 ---------------------------------------------------------------------
      1         29           0        0.000000    0.000000    0.033333
      2          1           0        0.000000    0.000000   -0.966667
 ---------------------------------------------------------------------

 SCF Done:  E(ROHF) =  -196.592732334     A.U. after   11 cycles
 E2 =    -0.1102338741D+01 EUMP2 =    -0.19769507107435D+03
 CCSD(T)
 CCSD(T)= -0.19761096945D+03

 The electronic state is 1-SG.
 Alpha  occ. eigenvalues --   -5.30650  -3.52763  -3.49310  -3.49310  -0.63689
 Alpha  occ. eigenvalues --   -0.57143  -0.57143  -0.54353  -0.54353  -0.32448
 Alpha virt. eigenvalues --    0.01080   0.02929   0.02929   0.03114   0.06369
 Alpha virt. eigenvalues --    0.09995   0.09995   0.10088   0.17335   0.18902
 Alpha virt. eigenvalues --    0.18902   0.20597   0.20597   0.22280   0.26123

 Mulliken charges and spin densities:
               1          2
     1  Cu   0.241649   0.000000
     2  H   -0.241649   0.000000
 Sum of Mulliken charges =  -0.00000   0.00000

 Dipole moment (field-independent basis, Debye):
    X=              0.0000    Y=              0.0000    Z=              2.8185  Tot=              2.8185
 Quadrupole moment (field-independent basis, Debye-Ang):
   XX=            -14.4952   YY=            -14.4952   ZZ=            -14.2378
   XY=              0.0000   XZ=              0.0000   YZ=              0.0000

 P ROCCSD(T)=(MaxCyc=150, Full)/Gen SCF=(maxcycle=400) Pseudo=Read Inte
 -0=-197.6950711\MP4SDQ=-197.6429074\CCSD=-197.5730053\CCSD(T)=-197.610
 Normal termination of Gaussian 16 at Sun Apr 22 21:27:55 2018.
