 Gaussian 16, Revision A.03,
 Gaussian 16:  ES64L-G16RevA.03 25-Dec-2016

 ----------------------------------------------------------------------
 #P ROCCSD(T)=(MaxCyc=150, Full)/Gen SCF=(maxcycle=400) Pseudo=Read Int
 egral(NoXCTest) Pop=Regular MaxDisk=500GB Guess=Read IOp(5/15=2)
 ----------------------------------------------------------------------

 ---
 CuH
 ---
 Symbolic Z-matrix:
 Charge =  0 Multiplicity = 1

                         Standard orientation:
 ---------------------------------------------------------------------
 Center     Atomic      Atomic             Coordinates (Angstroms)
 Number     Number       Type             X           Y           Z
 ---------------------------------------------------------------------
      1         29           0        0.000000    0.000000    0.033333
      2          1           0        0.000000    0.000000   -0.966667
 ---------------------------------------------------------------------

 SCF Done:  E(ROHF) =  -196.594364353     A.U. after   10 cycles
 E2 =    -0.1154172726D+01 EUMP2 =    -0.19774853707958D+03
 CCSD(T)
 CCSD(T)= -0.19766302302D+03

 The electronic state is 1-SG.
 Alpha  occ. eigenvalues --   -5.30649  -3.52752  -3.49303  -3.49303  -0.63690
 Alpha  occ. eigenvalues --   -0.57147  -0.57147  -0.54357  -0.54357  -0.32447
 Alpha virt. eigenvalues --    0.01016   0.02659   0.02659   0.02837   0.05875
 Alpha virt. eigenvalues --    0.08743   0.08743   0.09201   0.13157   0.13157
 Alpha virt. eigenvalues --    0.13278   0.14068   0.14068   0.19819   0.23185

 Mulliken charges and spin densities:
               1          2
     1  Cu   0.103442   0.000000
     2  H   -0.103442   0.000000
 Sum of Mulliken charges =   0.00000   0.00000

 Dipole moment (field-independent basis, Debye):
    X=              0.0000    Y=              0.0000    Z=              2.8128  Tot=              2.8128
 Quadrupole moment (field-independent basis, Debye-Ang):
   XX=            -14.4881   YY=            -14.4881   ZZ=            -14.2462
   XY=              0.0000   XZ=              0.0000   YZ=              0.0000

 P ROCCSD(T)=(MaxCyc=150, Full)/Gen SCF=(maxcycle=400) Pseudo=Read Inte
 -0=-197.7485371\MP4SDQ=-197.6921107\CCSD=-197.6231133\CCSD(T)=-197.663
 Normal termination of Gaussian 16 at Sun Apr 22 21:45:04 2018.
