 Gaussian 16, Revision A.03,
 Gaussian 16:  ES64L-G16RevA.03 25-Dec-2016

 ----------------------------------------------------------------------
 #P ROCCSD(T)=(MaxCyc=150, Full)/Gen SCF=(maxcycle=400) Pseudo=Read Int
 egral(NoXCTest) Pop=Regular MaxDisk=500GB Guess=Read IOp(5/15=2)
 ----------------------------------------------------------------------

 ---
 CuH
 ---
 Symbolic Z-matrix:
 Charge =  0 Multiplicity = 1

                         Standard orientation:
 ---------------------------------------------------------------------
 Center     Atomic      Atomic             Coordinates (Angstroms)
 Number     Number       Type             X           Y           Z
 ---------------------------------------------------------------------
      1         29           0        0.000000    0.000000    0.033333
      2          1           0        0.000000    0.000000   -0.966667
 ---------------------------------------------------------------------

 SCF Done:  E(ROHF) =  -196.594506804     A.U. after    9 cycles
 E2 =    -0.1179238348D+01 EUMP2 =    -0.19777374515206D+03
 CCSD(T)
 CCSD(T)= -0.19768600398D+03

 The electronic state is 1-SG.
 Alpha  occ. eigenvalues --   -5.30651  -3.52753  -3.49304  -3.49304  -0.63689
 Alpha  occ. eigenvalues --   -0.57151  -0.57151  -0.54358  -0.54358  -0.32447
 Alpha virt. eigenvalues --    0.00881   0.02561   0.02570   0.02570   0.05000
 Alpha virt. eigenvalues --    0.07876   0.08372   0.08372   0.11744   0.11744
 Alpha virt. eigenvalues --    0.11936   0.12629   0.12629   0.14845   0.18933

 Mulliken charges and spin densities:
               1          2
     1  Cu   0.243235   0.000000
     2  H   -0.243235   0.000000
 Sum of Mulliken charges =  -0.00000   0.00000

 Dipole moment (field-independent basis, Debye):
    X=              0.0000    Y=              0.0000    Z=              2.8116  Tot=              2.8116
 Quadrupole moment (field-independent basis, Debye-Ang):
   XX=            -14.4868   YY=            -14.4868   ZZ=            -14.2482
   XY=              0.0000   XZ=              0.0000   YZ=              0.0000

 P ROCCSD(T)=(MaxCyc=150, Full)/Gen SCF=(maxcycle=400) Pseudo=Read Inte
 -0=-197.7737452\MP4SDQ=-197.7138431\CCSD=-197.6453691\CCSD(T)=-197.686
 Normal termination of Gaussian 16 at Sun May  6 11:44:33 2018.
