 Gaussian 16, Revision A.03,
 Gaussian 16:  ES64L-G16RevA.03 25-Dec-2016

 ----------------------------------------------------------------------
 #P ROCCSD(T)=(MaxCyc=150, Window=(7,0))/Gen SCF=(maxcycle=400) Integra
 l(DKHSO, NoXCTest) Pop=Regular MaxDisk=500GB
 ----------------------------------------------------------------------

 ---
 FeO
 ---
 Symbolic Z-matrix:
 Charge =  0 Multiplicity = 5

                         Standard orientation:
 ---------------------------------------------------------------------
 Center     Atomic      Atomic             Coordinates (Angstroms)
 Number     Number       Type             X           Y           Z
 ---------------------------------------------------------------------
      1         26           0        0.000000    0.000000    0.282353
      2          8           0        0.000000    0.000000   -0.917647
 ---------------------------------------------------------------------

 SCF Done:  E(ROHF) =  -1345.90908430     A.U. after   30 cycles
 E2 =    -0.1080856573D+01 EUMP2 =    -0.13469899408754D+04
 CCSD(T)
 CCSD(T)= -0.13469631024D+04

 Unable to determine electronic state:  partially filled degenerate orbitals.
 Alpha  occ. eigenvalues -- -263.66374 -32.46423 -27.54244 -27.52049 -27.52049
 Alpha  occ. eigenvalues --  -20.60302  -4.38253  -2.98893  -2.89295  -2.89295
 Alpha  occ. eigenvalues --   -1.30488  -0.80446  -0.80446  -0.66970  -0.60901
 Alpha  occ. eigenvalues --   -0.56604  -0.41586  -0.41586  -0.29165
 Alpha virt. eigenvalues --    0.02260   0.02445   0.02445   0.02814   0.05942
 Alpha virt. eigenvalues --    0.06543   0.06543   0.06698   0.06708   0.08305
 Alpha virt. eigenvalues --    0.08305   0.09060   0.11089   0.16243   0.19930

 Mulliken charges and spin densities:
               1          2
     1  Fe   0.817144   3.680289
     2  O   -0.817144   0.319711
 Sum of Mulliken charges =  -0.00000   4.00000

 Dipole moment (field-independent basis, Debye):
    X=             -0.0000    Y=             -0.0000    Z=              1.4599  Tot=              1.4599
 Quadrupole moment (field-independent basis, Debye-Ang):
   XX=            -19.9054   YY=            -19.9054   ZZ=            -21.7022
   XY=             -0.0000   XZ=             -0.0000   YZ=              0.0000

 1\1\GINC-C407-003\SP\ROCCSD(T)-RW\Gen\Fe1O1(5)\GWANG18\01-Mar-2018\0\\
 #P ROCCSD(T)=(MaxCyc=150, Window=(7,0))/Gen SCF=(maxcycle=400) Integra
 l(DKHSO, NoXCTest) Pop=Regular MaxDisk=500GB\\FeO\\0,5\Fe,0,0.,0.,0.\O
 ,0,0.,0.,1.2\\Version=ES64L-G16RevA.03\HF=-1345.9090843\MP2=-1346.9899
 409\MP3=-1346.8667649\PUHF=-1345.9090843\PMP2-0=-1346.9899409\MP4SDQ=-
 1346.9498923\CCSD=-1346.9196524\CCSD(T)=-1346.9631024\RMSD=2.151e-09\P
 G=C*V [C*(O1Fe1)]\\@

 Normal termination of Gaussian 16 at Thu Mar  1 03:41:40 2018.
