 Gaussian 16, Revision A.03,
 Gaussian 16:  ES64L-G16RevA.03 25-Dec-2016

 ----------------------------------------------------------------------
 #P ROCCSD(T)=(MaxCyc=150, Window=(7,0))/Gen SCF=(maxcycle=400) Integra
 l(DKHSO, NoXCTest) Pop=Regular MaxDisk=500GB
 ----------------------------------------------------------------------

 ---
 FeO
 ---
 Symbolic Z-matrix:
 Charge =  0 Multiplicity = 5

                         Standard orientation:
 ---------------------------------------------------------------------
 Center     Atomic      Atomic             Coordinates (Angstroms)
 Number     Number       Type             X           Y           Z
 ---------------------------------------------------------------------
      1         26           0        0.000000    0.000000    0.282353
      2          8           0        0.000000    0.000000   -0.917647
 ---------------------------------------------------------------------

 SCF Done:  E(ROHF) =  -1345.90199193     A.U. after   25 cycles
 E2 =    -0.1033533886D+01 EUMP2 =    -0.13469355258161D+04
 CCSD(T)
 CCSD(T)= -0.13469107567D+04

 Unable to determine electronic state:  partially filled degenerate orbitals.
 Alpha  occ. eigenvalues -- -263.66397 -32.46468 -27.54298 -27.52091 -27.52091
 Alpha  occ. eigenvalues --  -20.60481  -4.38304  -2.98962  -2.89327  -2.89327
 Alpha  occ. eigenvalues --   -1.30576  -0.80448  -0.80448  -0.66992  -0.60913
 Alpha  occ. eigenvalues --   -0.56612  -0.41591  -0.41591  -0.29179
 Alpha virt. eigenvalues --    0.02384   0.02686   0.02686   0.03062   0.07477
 Alpha virt. eigenvalues --    0.08601   0.08601   0.09957   0.09988   0.10186
 Alpha virt. eigenvalues --    0.10186   0.11563   0.12125   0.18025   0.26594

 Mulliken charges and spin densities:
               1          2
     1  Fe   0.562537   3.698136
     2  O   -0.562537   0.301864
 Sum of Mulliken charges =  -0.00000   4.00000

 Dipole moment (field-independent basis, Debye):
    X=              0.0000    Y=              0.0000    Z=              1.4672  Tot=              1.4672
 Quadrupole moment (field-independent basis, Debye-Ang):
   XX=            -19.9077   YY=            -19.9077   ZZ=            -21.7233
   XY=              0.0000   XZ=              0.0000   YZ=              0.0000

 1\1\GINC-C407-003\SP\ROCCSD(T)-RW\Gen\Fe1O1(5)\GWANG18\28-Feb-2018\0\\
 #P ROCCSD(T)=(MaxCyc=150, Window=(7,0))/Gen SCF=(maxcycle=400) Integra
 l(DKHSO, NoXCTest) Pop=Regular MaxDisk=500GB\\FeO\\0,5\Fe,0,0.,0.,0.\O
 ,0,0.,0.,1.2\\Version=ES64L-G16RevA.03\HF=-1345.9019919\MP2=-1346.9355
 258\MP3=-1346.8149382\PUHF=-1345.9019919\PMP2-0=-1346.9355258\MP4SDQ=-
 1346.9000202\CCSD=-1346.869353\CCSD(T)=-1346.9107567\RMSD=3.197e-09\PG
 =C*V [C*(O1Fe1)]\\@

 Normal termination of Gaussian 16 at Wed Feb 28 21:58:54 2018.
