 Gaussian 16, Revision A.03,
 Gaussian 16:  ES64L-G16RevA.03 25-Dec-2016

 ----------------------------------------------------------------------
 #P ROCCSD(T)=(maxcyc=150, Full, SaveAmplitudes, ReadAmplitudes)/Gen 5d
  7f SCF=(maxcycles=300, VShift=400) Integral(NoXCTest) MaxDisk=500GB P
 op=Full Pseudo=Read Guess=Read IOp(5/15=2)
 ----------------------------------------------------------------------

 ---
 CrO
 ---
 Symbolic Z-matrix:
 Charge =  0 Multiplicity = 5

                         Standard orientation:
 ---------------------------------------------------------------------
 Center     Atomic      Atomic             Coordinates (Angstroms)
 Number     Number       Type             X           Y           Z
 ---------------------------------------------------------------------
      1         24           0        0.000000    0.000000    0.350000
      2          8           0        0.000000    0.000000   -1.050000
 ---------------------------------------------------------------------

 SCF Done:  E(ROHF) =  -102.087781852     A.U. after   41 cycles
 E2 =    -0.8841465690D+00 EUMP2 =    -0.10297192842102D+03
 CCSD(T)
 CCSD(T)= -0.10298920468D+03

 Unable to determine electronic state:  an orbital has unidentified symmetry.
 Alpha  occ. eigenvalues --   -3.76598  -2.46846  -2.42511  -2.42062  -1.23463
 Alpha  occ. eigenvalues --   -0.65805  -0.57271  -0.54624  -0.53147  -0.52464
 Alpha  occ. eigenvalues --   -0.39090  -0.28461
 Alpha virt. eigenvalues --    0.01146   0.01825   0.02167   0.03085   0.05019
 Alpha virt. eigenvalues --    0.05922   0.06778   0.07673   0.07679   0.07981
 Alpha virt. eigenvalues --    0.08502   0.09162   0.12523   0.15937   0.18029

 Mulliken charges and spin densities:
               1          2
     1  Cr   0.964607   3.802842
     2  O   -0.964607   0.197158
 Sum of Mulliken charges =  -0.00000   4.00000

 Dipole moment (field-independent basis, Debye):
    X=              0.0000    Y=              0.0000    Z=              3.1910  Tot=              3.1910
 Quadrupole moment (field-independent basis, Debye-Ang):
   XX=            -20.8100   YY=            -19.6082   ZZ=            -23.9398
   XY=              0.0000   XZ=              0.0000   YZ=              0.0000

 \\#P ROCCSD(T)=(maxcyc=150, Full, SaveAmplitudes, ReadAmplitudes)/Gen
 682558\CCSD=-102.9439387\CCSD(T)=-102.9892047\RMSD=8.072e-09\PG=C*V [C
 Normal termination of Gaussian 16 at Wed Apr  4 07:54:36 2018.
