 Gaussian 16, Revision A.03,
 Gaussian 16:  ES64L-G16RevA.03 25-Dec-2016

 ----------------------------------------------------------------------
 #P ROCCSD(T)=(MaxCyc=150, Full)/Gen SCF=(maxcycle=400, vshift=200) Pse
 udo=Read Integral(NoXCTest) Pop=Regular MaxDisk=500GB Guess=Read IOp(5
 /15=2)
 ----------------------------------------------------------------------

 ---
 CoH
 ---
 Symbolic Z-matrix:
 Charge =  0 Multiplicity = 3

                         Standard orientation:
 ---------------------------------------------------------------------
 Center     Atomic      Atomic             Coordinates (Angstroms)
 Number     Number       Type             X           Y           Z
 ---------------------------------------------------------------------
      1         27           0        0.000000    0.000000    0.046429
      2          1           0        0.000000    0.000000   -1.253571
 ---------------------------------------------------------------------

 SCF Done:  E(ROHF) =  -145.124361400     A.U. after   71 cycles
 E2 =    -0.8761647011D+00 EUMP2 =    -0.14600052610124D+03
 CCSD(T)
 CCSD(T)= -0.14597958096D+03

 Unable to determine electronic state:  partially filled degenerate orbitals.
 Alpha  occ. eigenvalues --   -4.53874  -2.98625  -2.98379  -2.98379  -0.50654
 Alpha  occ. eigenvalues --   -0.48843  -0.44635  -0.44635  -0.44291  -0.31818
 Alpha virt. eigenvalues --    0.00521   0.02709   0.02709   0.03176   0.05515
 Alpha virt. eigenvalues --    0.09381   0.09381   0.10259   0.11406   0.11448
 Alpha virt. eigenvalues --    0.11462   0.11556   0.11556   0.18868   0.26093

 Mulliken charges and spin densities:
               1          2
     1  Co   0.329155   1.967896
     2  H   -0.329155   0.032104
 Sum of Mulliken charges =  -0.00000   2.00000

 Dipole moment (field-independent basis, Debye):
    X=              0.0000    Y=              0.0000    Z=              3.8719  Tot=              3.8719
 Quadrupole moment (field-independent basis, Debye-Ang):
   XX=            -13.9379   YY=            -13.9379   ZZ=            -16.6244
   XY=              0.0000   XZ=              0.0000   YZ=              0.0000

 \\#P ROCCSD(T)=(MaxCyc=150, Full)/Gen SCF=(maxcycle=400, vshift=200) P
 \PMP2-0=-146.0005261\MP4SDQ=-145.9740378\CCSD=-145.9480708\CCSD(T)=-14
 Normal termination of Gaussian 16 at Sat Apr 21 22:43:05 2018.
