 Gaussian 16, Revision A.03,
 Gaussian 16:  ES64L-G16RevA.03 25-Dec-2016

 ----------------------------------------------------------------------
 #P ROCCSD(T)=(MaxCyc=150, Full)/Gen SCF=(maxcycle=400, vshift=200) Pse
 udo=Read Integral(NoXCTest) Pop=Regular MaxDisk=500GB Guess=Read IOp(5
 /15=2)
 ----------------------------------------------------------------------

 ---
 CoH
 ---
 Symbolic Z-matrix:
 Charge =  0 Multiplicity = 3

                         Standard orientation:
 ---------------------------------------------------------------------
 Center     Atomic      Atomic             Coordinates (Angstroms)
 Number     Number       Type             X           Y           Z
 ---------------------------------------------------------------------
      1         27           0        0.000000    0.000000    0.046429
      2          1           0        0.000000    0.000000   -1.253571
 ---------------------------------------------------------------------

 SCF Done:  E(ROHF) =  -145.125571563     A.U. after   36 cycles
 E2 =    -0.9177421083D+00 EUMP2 =    -0.14604331367083D+03
 CCSD(T)
 CCSD(T)= -0.14602076042D+03

 Unable to determine electronic state:  partially filled degenerate orbitals.
 Alpha  occ. eigenvalues --   -4.53875  -2.98618  -2.98372  -2.98372  -0.50655
 Alpha  occ. eigenvalues --   -0.48842  -0.44640  -0.44640  -0.44293  -0.31817
 Alpha virt. eigenvalues --    0.00482   0.02466   0.02466   0.02904   0.05295
 Alpha virt. eigenvalues --    0.06996   0.07386   0.07399   0.07552   0.07552
 Alpha virt. eigenvalues --    0.08569   0.08569   0.09863   0.19090   0.20508

 Mulliken charges and spin densities:
               1          2
     1  Co   0.394067   1.993387
     2  H   -0.394067   0.006613
 Sum of Mulliken charges =  -0.00000   2.00000

 Dipole moment (field-independent basis, Debye):
    X=              0.0000    Y=              0.0000    Z=              3.8694  Tot=              3.8694
 Quadrupole moment (field-independent basis, Debye-Ang):
   XX=            -13.9270   YY=            -13.9270   ZZ=            -16.6244
   XY=              0.0000   XZ=              0.0000   YZ=              0.0000

 \\#P ROCCSD(T)=(MaxCyc=150, Full)/Gen SCF=(maxcycle=400, vshift=200) P
 \PMP2-0=-146.0433137\MP4SDQ=-146.0130291\CCSD=-145.9876451\CCSD(T)=-14
 Normal termination of Gaussian 16 at Sat Apr 21 23:28:53 2018.
