 Gaussian 16, Revision A.03,
 Gaussian 16:  ES64L-G16RevA.03 25-Dec-2016

 ----------------------------------------------------------------------
 #P ROCCSD(T)=(MaxCyc=150, Full)/Gen SCF=(maxcycle=400, vshift=200) Pse
 udo=Read Integral(NoXCTest) Pop=Regular MaxDisk=500GB Guess=Read IOp(5
 /15=2)
 ----------------------------------------------------------------------

 ---
 CoH
 ---
 Symbolic Z-matrix:
 Charge =  0 Multiplicity = 3

                         Standard orientation:
 ---------------------------------------------------------------------
 Center     Atomic      Atomic             Coordinates (Angstroms)
 Number     Number       Type             X           Y           Z
 ---------------------------------------------------------------------
      1         27           0        0.000000    0.000000    0.046429
      2          1           0        0.000000    0.000000   -1.253571
 ---------------------------------------------------------------------

 SCF Done:  E(ROHF) =  -145.125796542     A.U. after   27 cycles
 E2 =    -0.9378222264D+00 EUMP2 =    -0.14606361876874D+03
 CCSD(T)
 CCSD(T)= -0.14603882821D+03

 Unable to determine electronic state:  partially filled degenerate orbitals.
 Alpha  occ. eigenvalues --   -4.53875  -2.98619  -2.98372  -2.98372  -0.50652
 Alpha  occ. eigenvalues --   -0.48840  -0.44646  -0.44646  -0.44298  -0.31816
 Alpha virt. eigenvalues --    0.00402   0.02387   0.02387   0.02605   0.04561
 Alpha virt. eigenvalues --    0.06481   0.06674   0.06684   0.06872   0.06872
 Alpha virt. eigenvalues --    0.08173   0.08173   0.08583   0.14797   0.18947

 Mulliken charges and spin densities:
               1          2
     1  Co   0.360919   1.966278
     2  H   -0.360919   0.033722
 Sum of Mulliken charges =  -0.00000   2.00000

 Dipole moment (field-independent basis, Debye):
    X=              0.0000    Y=              0.0000    Z=              3.8687  Tot=              3.8687
 Quadrupole moment (field-independent basis, Debye-Ang):
   XX=            -13.9265   YY=            -13.9265   ZZ=            -16.6249
   XY=              0.0000   XZ=              0.0000   YZ=              0.0000

 \\#P ROCCSD(T)=(MaxCyc=150, Full)/Gen SCF=(maxcycle=400, vshift=200) P
 \PMP2-0=-146.0636188\MP4SDQ=-146.0301282\CCSD=-146.0051084\CCSD(T)=-14
 Normal termination of Gaussian 16 at Sat Apr 28 21:12:15 2018.
