 Gaussian 16, Revision A.03,
 Gaussian 16:  ES64L-G16RevA.03 25-Dec-2016

 ----------------------------------------------------------------------
 #P ROCCSD(T)=(maxcyc=150, Full, SaveAmplitudes, ReadAmplitudes)/Gen 5d
  7f SCF=(maxcycles=300) Integral(NoXCTest) MaxDisk=500GB Pop=Regular P
 seudo=Read Guess=Read IOp(5/15=2)
 ----------------------------------------------------------------------

 ---
 ScO
 ---
 Symbolic Z-matrix:
 Charge =  0 Multiplicity = 2

                         Standard orientation:
 ---------------------------------------------------------------------
 Center     Atomic      Atomic             Coordinates (Angstroms)
 Number     Number       Type             X           Y           Z
 ---------------------------------------------------------------------
      1         21           0        0.000000    0.000000    0.524138
      2          8           0        0.000000    0.000000   -1.375862
 ---------------------------------------------------------------------

 SCF Done:  E(ROHF) =  -62.0424352001     A.U. after   20 cycles
 E2 =    -0.6964127301D+00 EUMP2 =    -0.62738847930161D+02
 CCSD(T)
 CCSD(T)= -0.62770137889D+02

 The electronic state is 2-SG.
 Alpha  occ. eigenvalues --   -2.74967  -1.68822  -1.68772  -1.68772  -1.09910
 Alpha  occ. eigenvalues --   -0.40221  -0.36379  -0.36379  -0.27577
 Alpha virt. eigenvalues --   -0.00852  -0.00852   0.00871   0.01969   0.03048
 Alpha virt. eigenvalues --    0.03048   0.03360   0.03360   0.04101   0.04319
 Alpha virt. eigenvalues --    0.04319   0.04903   0.06116   0.06116   0.09921

 Mulliken charges and spin densities:
               1          2
     1  Sc   1.214195   0.976769
     2  O   -1.214195   0.023231
 Sum of Mulliken charges =  -0.00000   1.00000

 Dipole moment (field-independent basis, Debye):
    X=              0.0000    Y=              0.0000    Z=              6.6997  Tot=              6.6997
 Quadrupole moment (field-independent basis, Debye-Ang):
   XX=            -21.9318   YY=            -21.9318   ZZ=            -33.8959
   XY=              0.0000   XZ=              0.0000   YZ=              0.0000

 \\#P ROCCSD(T)=(maxcyc=150, Full, SaveAmplitudes, ReadAmplitudes)/Gen
 46\CCSD=-62.7225398\CCSD(T)=-62.7701379\RMSD=7.368e-10\PG=C*V [C*(O1Sc
 Normal termination of Gaussian 16 at Wed Feb 21 06:54:26 2018.
