 Gaussian 16, Revision A.03,
 Gaussian 16:  ES64L-G16RevA.03 25-Dec-2016

 ----------------------------------------------------------------------
 #P ROCCSD(T)=(maxcyc=150, Full, SaveAmplitudes, ReadAmplitudes)/Gen 5d
  7f SCF=(maxcycles=300) Integral(NoXCTest) MaxDisk=500GB Pop=Regular P
 seudo=Read Guess=Read
 ----------------------------------------------------------------------

 ---
 ScO
 ---
 Symbolic Z-matrix:
 Charge =  0 Multiplicity = 2

                         Standard orientation:
 ---------------------------------------------------------------------
 Center     Atomic      Atomic             Coordinates (Angstroms)
 Number     Number       Type             X           Y           Z
 ---------------------------------------------------------------------
      1         21           0        0.000000    0.000000    0.413793
      2          8           0        0.000000    0.000000   -1.086207
 ---------------------------------------------------------------------

 SCF Done:  E(ROHF) =  -61.9140639885     A.U. after   17 cycles
 E2 =    -0.7063359528D+00 EUMP2 =    -0.62620399941290D+02
 CCSD(T)
 CCSD(T)= -0.62645361359D+02

 The electronic state is 2-SG.
 Alpha  occ. eigenvalues --   -2.60160  -1.68539  -1.58100  -1.58100  -1.11549
 Alpha  occ. eigenvalues --   -0.47982  -0.47982  -0.45030  -0.22514
 Alpha virt. eigenvalues --    0.00578   0.00578   0.01789   0.02091   0.02763
 Alpha virt. eigenvalues --    0.02763   0.02992   0.02992   0.03107   0.03650
 Alpha virt. eigenvalues --    0.03650   0.05726   0.07627   0.07627   0.09250

 Mulliken charges and spin densities:
               1          2
     1  Sc   1.199811   0.996074
     2  O   -1.199811   0.003926
 Sum of Mulliken charges =  -0.00000   1.00000

 Dipole moment (field-independent basis, Debye):
    X=              0.0000    Y=              0.0000    Z=              2.7224  Tot=              2.7224
 Quadrupole moment (field-independent basis, Debye-Ang):
   XX=            -22.0269   YY=            -22.0269   ZZ=            -31.0946
   XY=              0.0000   XZ=              0.0000   YZ=              0.0000

 \\#P ROCCSD(T)=(maxcyc=150, Full, SaveAmplitudes, ReadAmplitudes)/Gen
 4064\PMP2-0=-62.6203999\CCSD=-62.608466\CCSD(T)=-62.6453614\RMSD=6.996
 Normal termination of Gaussian 16 at Wed Feb 21 02:25:53 2018.
