 Gaussian 16, Revision A.03,
 Gaussian 16:  ES64L-G16RevA.03 25-Dec-2016

 ----------------------------------------------------------------------
 #P ROCCSD(T)=(maxcyc=150, Full, SaveAmplitudes, ReadAmplitudes)/Gen 5d
  7f SCF=(maxcycles=300) Integral(NoXCTest) MaxDisk=500GB Pop=Regular P
 seudo=Read Guess=Read IOp(5/15=2)
 ----------------------------------------------------------------------

 ---
 ScO
 ---
 Symbolic Z-matrix:
 Charge =  0 Multiplicity = 2

                         Standard orientation:
 ---------------------------------------------------------------------
 Center     Atomic      Atomic             Coordinates (Angstroms)
 Number     Number       Type             X           Y           Z
 ---------------------------------------------------------------------
      1         21           0        0.000000    0.000000    0.303448
      2          8           0        0.000000    0.000000   -0.796552
 ---------------------------------------------------------------------

 SCF Done:  E(ROHF) =  -61.3822869632     A.U. after   18 cycles
 E2 =    -0.6398787002D+00 EUMP2 =    -0.62022165663421D+02
 CCSD(T)
 CCSD(T)= -0.62054586150D+02

 The electronic state is 2-SG.
 Alpha  occ. eigenvalues --   -2.69386  -1.86258  -1.53800  -1.53800  -1.04110
 Alpha  occ. eigenvalues --   -0.69508  -0.69508  -0.47203  -0.16518
 Alpha virt. eigenvalues --    0.00945   0.00945   0.01483   0.03002   0.03748
 Alpha virt. eigenvalues --    0.03748   0.03800   0.03800   0.03868   0.04920
 Alpha virt. eigenvalues --    0.04920   0.06743   0.11171   0.11171   0.11350

 Mulliken charges and spin densities:
               1          2
     1  Sc   0.932230   1.058244
     2  O   -0.932230  -0.058244
 Sum of Mulliken charges =  -0.00000   1.00000

 Dipole moment (field-independent basis, Debye):
    X=              0.0000    Y=              0.0000    Z=             -2.4639  Tot=              2.4639
 Quadrupole moment (field-independent basis, Debye-Ang):
   XX=            -24.4712   YY=            -24.4712   ZZ=            -28.5989
   XY=              0.0000   XZ=              0.0000   YZ=              0.0000

 \\#P ROCCSD(T)=(maxcyc=150, Full, SaveAmplitudes, ReadAmplitudes)/Gen
 \CCSD=-62.0296317\CCSD(T)=-62.0545862\RMSD=4.411e-09\PG=C*V [C*(O1Sc1)
 Normal termination of Gaussian 16 at Tue Feb 20 19:57:25 2018.
