 Gaussian 16, Revision A.03,
 Gaussian 16:  ES64L-G16RevA.03 25-Dec-2016

 ----------------------------------------------------------------------
 #P ROCCSD(T)=(maxcyc=150, Full, SaveAmplitudes, ReadAmplitudes)/Gen 5d
  7f SCF=(maxcycles=300, VShift=400) Integral(NoXCTest) MaxDisk=500GB P
 op=Full Pseudo=Read Guess=Read
 ----------------------------------------------------------------------

 ---
 ScH
 ---
 Symbolic Z-matrix:
 Charge =  0 Multiplicity = 1

                         Standard orientation:
 ---------------------------------------------------------------------
 Center     Atomic      Atomic             Coordinates (Angstroms)
 Number     Number       Type             X           Y           Z
 ---------------------------------------------------------------------
      1         21           0        0.000000    0.000000    0.059091
      2          1           0        0.000000    0.000000   -1.240909
 ---------------------------------------------------------------------

 SCF Done:  E(ROHF) =  -46.6054075087     A.U. after   22 cycles
 E2 =    -0.4313096915D+00 EUMP2 =    -0.47036717200198D+02
 CCSD(T)
 CCSD(T)= -0.47075240258D+02

 The electronic state is 1-SG.
 Alpha  occ. eigenvalues --   -2.62343  -1.63804  -1.60911  -1.60911  -0.46229
 Alpha  occ. eigenvalues --   -0.21655
 Alpha virt. eigenvalues --    0.01286   0.01286   0.01460   0.01942   0.02888
 Alpha virt. eigenvalues --    0.02888   0.02897   0.02897   0.02902   0.04386
 Alpha virt. eigenvalues --    0.04395   0.04395   0.07921   0.08195   0.08195

 Mulliken charges and spin densities:
               1          2
     1  Sc   0.265275   0.000000
     2  H   -0.265275   0.000000
 Sum of Mulliken charges =  -0.00000   0.00000

 Dipole moment (field-independent basis, Debye):
    X=              0.0000    Y=              0.0000    Z=              0.6662  Tot=              0.6662
 Quadrupole moment (field-independent basis, Debye-Ang):
   XX=            -23.6089   YY=            -23.6089   ZZ=            -23.1832
   XY=              0.0000   XZ=              0.0000   YZ=              0.0000

 P ROCCSD(T)=(maxcyc=150, Full, SaveAmplitudes, ReadAmplitudes)/Gen 5d
 =-46.6054075\PMP2-0=-47.0367172\CCSD=-47.0566699\CCSD(T)=-47.0752403\R
 Normal termination of Gaussian 16 at Thu Apr 19 08:08:11 2018.
