 Gaussian 16, Revision A.03,
 Gaussian 16:  ES64L-G16RevA.03 25-Dec-2016

 ----------------------------------------------------------------------
 #P ROCCSD(T)=(maxcyc=150, Full, SaveAmplitudes, ReadAmplitudes)/Gen 5d
  7f SCF=(maxcycles=300) Integral(NoXCTest) MaxDisk=500GB Pop=Regular P
 seudo=Read Guess=Read IOp(5/15=2)
 ----------------------------------------------------------------------

 ---
 MnO
 ---
 Symbolic Z-matrix:
 Charge =  0 Multiplicity = 6

                         Standard orientation:
 ---------------------------------------------------------------------
 Center     Atomic      Atomic             Coordinates (Angstroms)
 Number     Number       Type             X           Y           Z
 ---------------------------------------------------------------------
      1         25           0        0.000000    0.000000    0.315152
      2          8           0        0.000000    0.000000   -0.984848
 ---------------------------------------------------------------------

 SCF Done:  E(ROHF) =  -119.198996008     A.U. after   29 cycles
 E2 =    -0.9453865046D+00 EUMP2 =    -0.12014438251218D+03
 CCSD(T)
 CCSD(T)= -0.12015309043D+03

 The electronic state is 6-SG.
 Alpha  occ. eigenvalues --   -4.07798  -2.73510  -2.73510  -2.73262  -1.27717
 Alpha  occ. eigenvalues --   -0.73228  -0.73228  -0.61391  -0.61391  -0.60061
 Alpha  occ. eigenvalues --   -0.40822  -0.40822  -0.30304
 Alpha virt. eigenvalues --    0.01907   0.02421   0.02421   0.03161   0.06298
 Alpha virt. eigenvalues --    0.07564   0.07564   0.08760   0.08760   0.09367
 Alpha virt. eigenvalues --    0.09367   0.10222   0.12072   0.16210   0.24357

 Mulliken charges and spin densities:
               1          2
     1  Mn   0.808538   4.777630
     2  O   -0.808538   0.222370
 Sum of Mulliken charges =  -0.00000   5.00000

 Dipole moment (field-independent basis, Debye):
    X=              0.0000    Y=              0.0000    Z=              2.7363  Tot=              2.7363
 Quadrupole moment (field-independent basis, Debye-Ang):
   XX=            -19.7661   YY=            -19.7661   ZZ=            -22.8876
   XY=              0.0000   XZ=              0.0000   YZ=              0.0000

 \\#P ROCCSD(T)=(maxcyc=150, Full, SaveAmplitudes, ReadAmplitudes)/Gen
 66811\CCSD=-120.1130664\CCSD(T)=-120.1530904\RMSD=6.964e-09\PG=C*V [C*
 Normal termination of Gaussian 16 at Wed Mar 14 01:06:20 2018.
