 Gaussian 16, Revision A.03,
 Gaussian 16:  ES64L-G16RevA.03 25-Dec-2016

 ----------------------------------------------------------------------
 #P ROCCSD(T)=(MaxCyc=150, Full)/Gen SCF=(maxcycle=400, vshift=200) Pse
 udo=Read Integral(NoXCTest) Pop=Regular MaxDisk=500GB Guess=Read IOp(5
 /15=2)
 ----------------------------------------------------------------------

 ---
 ZnH
 ---
 Symbolic Z-matrix:
 Charge =  0 Multiplicity = 2

                         Standard orientation:
 ---------------------------------------------------------------------
 Center     Atomic      Atomic             Coordinates (Angstroms)
 Number     Number       Type             X           Y           Z
 ---------------------------------------------------------------------
      1         30           0        0.000000    0.000000    0.054839
      2          1           0        0.000000    0.000000   -1.645161
 ---------------------------------------------------------------------

 SCF Done:  E(ROHF) =  -226.488213587     A.U. after   18 cycles
 E2 =    -0.1033419652D+01 EUMP2 =    -0.22752163323833D+03
 CCSD(T)
 CCSD(T)= -0.22747360304D+03

 The electronic state is 2-SG.
 Alpha  occ. eigenvalues --   -5.90108  -3.97310  -3.97310  -3.97047  -0.80223
 Alpha  occ. eigenvalues --   -0.80223  -0.79942  -0.79708  -0.79708  -0.44678
 Alpha  occ. eigenvalues --   -0.28143
 Alpha virt. eigenvalues --    0.02021   0.02021   0.02951   0.03850   0.07583
 Alpha virt. eigenvalues --    0.07583   0.08790   0.15885   0.17636   0.23957
 Alpha virt. eigenvalues --    0.23957   0.24882   0.24882   0.25220   0.29465

 Mulliken charges and spin densities:
               1          2
     1  Zn   0.345287   0.917579
     2  H   -0.345287   0.082421
 Sum of Mulliken charges =  -0.00000   1.00000

 Dipole moment (field-independent basis, Debye):
    X=              0.0000    Y=              0.0000    Z=              1.0927  Tot=              1.0927
 Quadrupole moment (field-independent basis, Debye-Ang):
   XX=            -14.6830   YY=            -14.6830   ZZ=            -21.5053
   XY=              0.0000   XZ=              0.0000   YZ=              0.0000

 \\#P ROCCSD(T)=(MaxCyc=150, Full)/Gen SCF=(maxcycle=400, vshift=200) P
 Normal termination of Gaussian 16 at Sat Apr 21 10:27:42 2018.
