 Gaussian 16, Revision A.03,
 Gaussian 16:  ES64L-G16RevA.03 25-Dec-2016

 ----------------------------------------------------------------------
 #P ROCCSD(T)=(MaxCyc=150, Full)/Gen SCF=(maxcycle=400, vshift=200) Pse
 udo=Read Integral(NoXCTest) Pop=Regular MaxDisk=500GB Guess=Read IOp(5
 /15=2)
 ----------------------------------------------------------------------

 ---
 ZnH
 ---
 Symbolic Z-matrix:
 Charge =  0 Multiplicity = 2

                         Standard orientation:
 ---------------------------------------------------------------------
 Center     Atomic      Atomic             Coordinates (Angstroms)
 Number     Number       Type             X           Y           Z
 ---------------------------------------------------------------------
      1         30           0        0.000000    0.000000    0.054839
      2          1           0        0.000000    0.000000   -1.645161
 ---------------------------------------------------------------------

 SCF Done:  E(ROHF) =  -226.489363250     A.U. after   18 cycles
 E2 =    -0.1087951462D+01 EUMP2 =    -0.22757731471127D+03
 CCSD(T)
 CCSD(T)= -0.22752845171D+03

 The electronic state is 2-SG.
 Alpha  occ. eigenvalues --   -5.90102  -3.97295  -3.97295  -3.97038  -0.80219
 Alpha  occ. eigenvalues --   -0.80219  -0.79941  -0.79707  -0.79707  -0.44676
 Alpha  occ. eigenvalues --   -0.28146
 Alpha virt. eigenvalues --    0.01903   0.01903   0.02835   0.03476   0.06633
 Alpha virt. eigenvalues --    0.06633   0.07795   0.14061   0.16567   0.17924
 Alpha virt. eigenvalues --    0.17924   0.18032   0.18032   0.20961   0.23427

 Mulliken charges and spin densities:
               1          2
     1  Zn   0.311449   0.911798
     2  H   -0.311449   0.088202
 Sum of Mulliken charges =   0.00000   1.00000

 Dipole moment (field-independent basis, Debye):
    X=              0.0000    Y=              0.0000    Z=              1.0955  Tot=              1.0955
 Quadrupole moment (field-independent basis, Debye-Ang):
   XX=            -14.6805   YY=            -14.6805   ZZ=            -21.5031
   XY=              0.0000   XZ=              0.0000   YZ=              0.0000

 \\#P ROCCSD(T)=(MaxCyc=150, Full)/Gen SCF=(maxcycle=400, vshift=200) P
 CCSD(T)=-227.5284517\RMSD=5.330e-09\PG=C*V [C*(H1Zn1)]\\@
 Normal termination of Gaussian 16 at Sat Apr 21 11:19:19 2018.
