 Gaussian 16, Revision A.03,
 Gaussian 16:  ES64L-G16RevA.03 25-Dec-2016

 ----------------------------------------------------------------------
 #P ROCCSD(T)=(MaxCyc=150, Full)/Gen SCF=(maxcycle=400, vshift=200) Pse
 udo=Read Integral(NoXCTest) Pop=Regular MaxDisk=500GB Guess=Read IOp(5
 /15=2)
 ----------------------------------------------------------------------

 ---
 ZnH
 ---
 Symbolic Z-matrix:
 Charge =  0 Multiplicity = 2

                         Standard orientation:
 ---------------------------------------------------------------------
 Center     Atomic      Atomic             Coordinates (Angstroms)
 Number     Number       Type             X           Y           Z
 ---------------------------------------------------------------------
      1         30           0        0.000000    0.000000    0.054839
      2          1           0        0.000000    0.000000   -1.645161
 ---------------------------------------------------------------------

 SCF Done:  E(ROHF) =  -226.489474216     A.U. after   19 cycles
 E2 =    -0.1114389281D+01 EUMP2 =    -0.22760386349710D+03
 CCSD(T)
 CCSD(T)= -0.22755305288D+03

 The electronic state is 2-SG.
 Alpha  occ. eigenvalues --   -5.90103  -3.97295  -3.97295  -3.97038  -0.80219
 Alpha  occ. eigenvalues --   -0.80219  -0.79941  -0.79707  -0.79707  -0.44677
 Alpha  occ. eigenvalues --   -0.28147
 Alpha virt. eigenvalues --    0.01843   0.01843   0.02374   0.03231   0.06215
 Alpha virt. eigenvalues --    0.06215   0.06776   0.12064   0.13149   0.15352
 Alpha virt. eigenvalues --    0.15352   0.15385   0.15385   0.18008   0.20976

 Mulliken charges and spin densities:
               1          2
     1  Zn   0.273969   0.910320
     2  H   -0.273969   0.089680
 Sum of Mulliken charges =  -0.00000   1.00000

 Dipole moment (field-independent basis, Debye):
    X=              0.0000    Y=              0.0000    Z=              1.0959  Tot=              1.0959
 Quadrupole moment (field-independent basis, Debye-Ang):
   XX=            -14.6799   YY=            -14.6799   ZZ=            -21.5008
   XY=              0.0000   XZ=              0.0000   YZ=              0.0000

 \\#P ROCCSD(T)=(MaxCyc=150, Full)/Gen SCF=(maxcycle=400, vshift=200) P
 Normal termination of Gaussian 16 at Mon Apr 30 08:36:23 2018.
