 Gaussian 16, Revision A.03,
 Gaussian 16:  ES64L-G16RevA.03 25-Dec-2016

 ----------------------------------------------------------------------
 #P ROCCSD(T)=(maxcyc=150, Full)/Gen 5d 7f SCF=(maxcycles=300) Integral
 (NoXCTest, DKHSO) MaxDisk=500GB Pop=Regular IOp(5/15=2) Guess=Read
 ----------------------------------------------------------------------

 ---
 CrH
 ---
 Symbolic Z-matrix:
 Charge =  0 Multiplicity = 6

                         Standard orientation:
 ---------------------------------------------------------------------
 Center     Atomic      Atomic             Coordinates (Angstroms)
 Number     Number       Type             X           Y           Z
 ---------------------------------------------------------------------
      1         24           0        0.000000    0.000000    0.060000
      2          1           0        0.000000    0.000000   -1.440000
 ---------------------------------------------------------------------

 SCF Done:  E(ROHF) =  -1050.19179509     A.U. after   23 cycles
 E2 =    -0.9298810349D+00 EUMP2 =    -0.10511216761221D+04
 CCSD(T)
 CCSD(T)= -0.10511511393D+04

 The electronic state is 6-SG.
 Alpha  occ. eigenvalues -- -222.17349 -26.76517 -22.39935 -22.39935 -22.39885
 Alpha  occ. eigenvalues --   -3.64090  -2.39523  -2.39523  -2.36131  -0.51471
 Alpha  occ. eigenvalues --   -0.51471  -0.48513  -0.48513  -0.42775  -0.25531
 Alpha virt. eigenvalues --    0.01477   0.01477   0.02256   0.02427   0.05778
 Alpha virt. eigenvalues --    0.05778   0.05993   0.07707   0.07707   0.08086
 Alpha virt. eigenvalues --    0.08086   0.08589   0.10257   0.18601   0.21453

 Mulliken charges and spin densities:
               1          2
     1  Cr   0.581437   4.993622
     2  H   -0.581437   0.006378
 Sum of Mulliken charges =  -0.00000   5.00000

 Dipole moment (field-independent basis, Debye):
    X=              0.0000    Y=              0.0000    Z=              1.8639  Tot=              1.8639
 Quadrupole moment (field-independent basis, Debye-Ang):
   XX=            -17.2250   YY=            -17.2250   ZZ=            -22.5234
   XY=              0.0000   XZ=              0.0000   YZ=              0.0000

 \\#P ROCCSD(T)=(maxcyc=150, Full)/Gen 5d 7f SCF=(maxcycles=300) Integr
 Normal termination of Gaussian 16 at Tue Feb 13 17:59:17 2018.
