 Gaussian 16, Revision A.03,
 Gaussian 16:  ES64L-G16RevA.03 25-Dec-2016

 ----------------------------------------------------------------------
 #P ROCCSD(T)=(maxcyc=150, Full, SaveAmplitudes, ReadAmplitudes)/Gen 5d
  7f SCF=(maxcycles=300, VShift=400) Integral(NoXCTest) MaxDisk=500GB P
 op=Regular Pseudo=Read Guess=Read IOp(5/15=2)
 ----------------------------------------------------------------------

 ---
 CrO
 ---
 Symbolic Z-matrix:
 Charge =  0 Multiplicity = 5

                         Standard orientation:
 ---------------------------------------------------------------------
 Center     Atomic      Atomic             Coordinates (Angstroms)
 Number     Number       Type             X           Y           Z
 ---------------------------------------------------------------------
      1         24           0        0.000000    0.000000    0.475000
      2          8           0        0.000000    0.000000   -1.425000
 ---------------------------------------------------------------------

 SCF Done:  E(ROHF) =  -101.978514238     A.U. after   87 cycles
 E2 =    -0.8492602307D+00 EUMP2 =    -0.10282777446864D+03
 CCSD(T)
 CCSD(T)= -0.10288450839D+03

 Unable to determine electronic state:  an orbital has unidentified symmetry.
 Alpha  occ. eigenvalues --   -3.78370  -2.50242  -2.45134  -2.44404  -1.08873
 Alpha  occ. eigenvalues --   -0.59469  -0.57183  -0.56972  -0.54262  -0.33603
 Alpha  occ. eigenvalues --   -0.33080  -0.31933
 Alpha virt. eigenvalues --   -0.05184   0.00578   0.01205   0.01579   0.03695
 Alpha virt. eigenvalues --    0.04834   0.05986   0.07337   0.07341   0.07621
 Alpha virt. eigenvalues --    0.08329   0.08572   0.12605   0.12798   0.15470

 Mulliken charges and spin densities:
               1          2
     1  Cr   1.117795   3.968066
     2  O   -1.117795   0.031934
 Sum of Mulliken charges =  -0.00000   4.00000

 Dipole moment (field-independent basis, Debye):
    X=              0.0000    Y=              0.0000    Z=             10.0345  Tot=             10.0345
 Quadrupole moment (field-independent basis, Debye-Ang):
   XX=            -19.6993   YY=            -19.0258   ZZ=            -24.8570
   XY=              0.0000   XZ=              0.0000   YZ=              0.0000

 \\#P ROCCSD(T)=(maxcyc=150, Full, SaveAmplitudes, ReadAmplitudes)/Gen
 2.8393199\CCSD=-102.8304529\CCSD(T)=-102.8845084\RMSD=8.220e-09\PG=C*V
 Normal termination of Gaussian 16 at Sun Mar 18 17:32:51 2018.
