 Gaussian 16, Revision A.03,
 Gaussian 16:  ES64L-G16RevA.03 25-Dec-2016

 ----------------------------------------------------------------------
 #P ROCCSD(T)=(maxcyc=150, Full)/Gen 5d 7f SCF=(maxcycles=300) Integral
 (NoXCTest) MaxDisk=500GB Pop=Regular Pseudo=Read Guess=Read
 ----------------------------------------------------------------------

 ---
 CrH
 ---
 Symbolic Z-matrix:
 Charge =  0 Multiplicity = 6

                         Standard orientation:
 ---------------------------------------------------------------------
 Center     Atomic      Atomic             Coordinates (Angstroms)
 Number     Number       Type             X           Y           Z
 ---------------------------------------------------------------------
      1         24           0        0.000000    0.000000    0.088000
      2          1           0        0.000000    0.000000   -2.112000
 ---------------------------------------------------------------------

 SCF Done:  E(ROHF) =  -86.6714333181     A.U. after   22 cycles
 E2 =    -0.5394046229D+00 EUMP2 =    -0.87210837941052D+02
 CCSD(T)
 CCSD(T)= -0.87229692246D+02

 The electronic state is 6-SG.
 Alpha  occ. eigenvalues --   -3.77056  -2.52529  -2.52529  -2.47478  -0.59593
 Alpha  occ. eigenvalues --   -0.59593  -0.55943  -0.55943  -0.36205  -0.27224
 Alpha virt. eigenvalues --    0.00752   0.00752   0.01700   0.02526   0.04361
 Alpha virt. eigenvalues --    0.04553   0.04553   0.05216   0.05216   0.05657
 Alpha virt. eigenvalues --    0.05657   0.06340   0.09772   0.11964   0.14936

 Mulliken charges and spin densities:
               1          2
     1  Cr   0.367757   4.970437
     2  H   -0.367757   0.029563
 Sum of Mulliken charges =  -0.00000   5.00000

 Dipole moment (field-independent basis, Debye):
    X=              0.0000    Y=              0.0000    Z=              3.6339  Tot=              3.6339
 Quadrupole moment (field-independent basis, Debye-Ang):
   XX=            -17.4376   YY=            -17.4376   ZZ=            -28.8505
   XY=              0.0000   XZ=              0.0000   YZ=              0.0000

 \\#P ROCCSD(T)=(maxcyc=150, Full)/Gen 5d 7f SCF=(maxcycles=300) Integr
 7.2108379\MP4SDQ=-87.2266167\CCSD=-87.2163146\CCSD(T)=-87.2296922\RMSD
 Normal termination of Gaussian 16 at Tue Feb 13 19:14:06 2018.
