 Gaussian 16, Revision A.03,
 Gaussian 16:  ES64L-G16RevA.03 25-Dec-2016

 ----------------------------------------------------------------------
 #P ROCCSD(T)=(maxcyc=150, Full)/Gen 5d 7f SCF=(maxcycles=300) Integral
 (NoXCTest) MaxDisk=500GB Pop=Regular Pseudo=Read IOp(5/15=2) Guess=Rea
 d
 ----------------------------------------------------------------------

 ---
 ScH
 ---
 Symbolic Z-matrix:
 Charge =  0 Multiplicity = 1

                         Standard orientation:
 ---------------------------------------------------------------------
 Center     Atomic      Atomic             Coordinates (Angstroms)
 Number     Number       Type             X           Y           Z
 ---------------------------------------------------------------------
      1         21           0        0.000000    0.000000    0.068182
      2          1           0        0.000000    0.000000   -1.431818
 ---------------------------------------------------------------------

 SCF Done:  E(ROHF) =  -46.7711618121     A.U. after    8 cycles
 E2 =    -0.4389102371D+00 EUMP2 =    -0.47210072049159D+02
 CCSD(T)
 CCSD(T)= -0.47248727181D+02

 The electronic state is 1-SG.
 Alpha  occ. eigenvalues --   -2.72049  -1.63680  -1.62713  -1.62713  -0.44227
 Alpha  occ. eigenvalues --   -0.22267
 Alpha virt. eigenvalues --    0.01211   0.01211   0.01494   0.01676   0.02619
 Alpha virt. eigenvalues --    0.02619   0.02630   0.02630   0.02654   0.04118
 Alpha virt. eigenvalues --    0.04204   0.04204   0.06969   0.07280   0.07280

 Mulliken charges and spin densities:
               1          2
     1  Sc   0.371476   0.000000
     2  H   -0.371476   0.000000
 Sum of Mulliken charges =   0.00000   0.00000

 Dipole moment (field-independent basis, Debye):
    X=              0.0000    Y=              0.0000    Z=              0.7240  Tot=              0.7240
 Quadrupole moment (field-independent basis, Debye-Ang):
   XX=            -23.3346   YY=            -23.3346   ZZ=            -24.6887
   XY=              0.0000   XZ=              0.0000   YZ=              0.0000

 P ROCCSD(T)=(maxcyc=150, Full)/Gen 5d 7f SCF=(maxcycles=300) Integral(
 MP2-0=-47.210072\MP4SDQ=-47.2296912\CCSD=-47.2294001\CCSD(T)=-47.24872
 Normal termination of Gaussian 16 at Wed Feb 14 01:18:30 2018.
