 Gaussian 16, Revision A.03,
 Gaussian 16:  ES64L-G16RevA.03 25-Dec-2016

 ----------------------------------------------------------------------
 #P ROCCSD(T)=(maxcyc=150, Full, SaveAmplitudes, ReadAmplitudes)/Gen 5d
  7f SCF=(maxcycles=300) Integral(NoXCTest) MaxDisk=500GB Pop=Regular P
 seudo=Read Guess=Read IOp(5/15=2)
 ----------------------------------------------------------------------

 ---
 ScO
 ---
 Symbolic Z-matrix:
 Charge =  0 Multiplicity = 2

                         Standard orientation:
 ---------------------------------------------------------------------
 Center     Atomic      Atomic             Coordinates (Angstroms)
 Number     Number       Type             X           Y           Z
 ---------------------------------------------------------------------
      1         21           0        0.000000    0.000000    0.524138
      2          8           0        0.000000    0.000000   -1.375862
 ---------------------------------------------------------------------

 SCF Done:  E(ROHF) =  -61.9255816432     A.U. after   17 cycles
 E2 =    -0.6930924892D+00 EUMP2 =    -0.62618674132385D+02
 CCSD(T)
 CCSD(T)= -0.62651416413D+02

 The electronic state is 2-SG.
 Alpha  occ. eigenvalues --   -2.71773  -1.68354  -1.68262  -1.68262  -1.11010
 Alpha  occ. eigenvalues --   -0.40295  -0.36515  -0.36515  -0.27452
 Alpha virt. eigenvalues --   -0.00868  -0.00868   0.00894   0.01958   0.03044
 Alpha virt. eigenvalues --    0.03044   0.03350   0.03350   0.04092   0.04315
 Alpha virt. eigenvalues --    0.04315   0.04897   0.06037   0.06037   0.09956

 Mulliken charges and spin densities:
               1          2
     1  Sc   1.208490   0.977351
     2  O   -1.208490   0.022649
 Sum of Mulliken charges =  -0.00000   1.00000

 Dipole moment (field-independent basis, Debye):
    X=              0.0000    Y=              0.0000    Z=              6.6326  Tot=              6.6326
 Quadrupole moment (field-independent basis, Debye-Ang):
   XX=            -21.9694   YY=            -21.9694   ZZ=            -34.0620
   XY=              0.0000   XZ=              0.0000   YZ=              0.0000

 \\#P ROCCSD(T)=(maxcyc=150, Full, SaveAmplitudes, ReadAmplitudes)/Gen
 13\CCSD=-62.6037532\CCSD(T)=-62.6514164\RMSD=4.913e-09\PG=C*V [C*(O1Sc
 Normal termination of Gaussian 16 at Wed Mar  7 11:46:49 2018.
