 Gaussian 16, Revision A.03,
 Gaussian 16:  ES64L-G16RevA.03 25-Dec-2016

 ----------------------------------------------------------------------
 #P ROCCSD(T)=(maxcyc=150, Full, SaveAmplitudes, ReadAmplitudes)/Gen 5d
  7f SCF=(maxcycles=300) Integral(NoXCTest) MaxDisk=500GB Pop=Regular P
 seudo=Read Guess=Read IOp(5/15=2)
 ----------------------------------------------------------------------

 ---
 ScO
 ---
 Symbolic Z-matrix:
 Charge =  0 Multiplicity = 2

                         Standard orientation:
 ---------------------------------------------------------------------
 Center     Atomic      Atomic             Coordinates (Angstroms)
 Number     Number       Type             X           Y           Z
 ---------------------------------------------------------------------
      1         21           0        0.000000    0.000000    0.331034
      2          8           0        0.000000    0.000000   -0.868966
 ---------------------------------------------------------------------

 SCF Done:  E(ROHF) =  -61.7271534213     A.U. after   18 cycles
 E2 =    -0.6550178167D+00 EUMP2 =    -0.62382171237996D+02
 CCSD(T)
 CCSD(T)= -0.62413328069D+02

 The electronic state is 2-SG.
 Alpha  occ. eigenvalues --   -2.66227  -1.81591  -1.51205  -1.51205  -1.04488
 Alpha  occ. eigenvalues --   -0.63568  -0.63568  -0.47379  -0.17927
 Alpha virt. eigenvalues --    0.01031   0.01031   0.01788   0.02772   0.03767
 Alpha virt. eigenvalues --    0.03767   0.03801   0.03801   0.03864   0.04916
 Alpha virt. eigenvalues --    0.04916   0.07202   0.11136   0.11136   0.11188

 Mulliken charges and spin densities:
               1          2
     1  Sc   1.059580   1.030615
     2  O   -1.059580  -0.030615
 Sum of Mulliken charges =  -0.00000   1.00000

 Dipole moment (field-independent basis, Debye):
    X=              0.0000    Y=              0.0000    Z=             -1.1956  Tot=              1.1956
 Quadrupole moment (field-independent basis, Debye-Ang):
   XX=            -23.4477   YY=            -23.4477   ZZ=            -29.0033
   XY=              0.0000   XZ=              0.0000   YZ=              0.0000

 \\#P ROCCSD(T)=(maxcyc=150, Full, SaveAmplitudes, ReadAmplitudes)/Gen
 75\CCSD=-62.3861855\CCSD(T)=-62.4133281\RMSD=2.844e-09\PG=C*V [C*(O1Sc
 Normal termination of Gaussian 16 at Tue Feb 20 21:15:13 2018.
