 Gaussian 16, Revision A.03,
 Gaussian 16:  ES64L-G16RevA.03 25-Dec-2016

 ----------------------------------------------------------------------
 #P ROCCSD(T)=(MaxCyc=150, Full)/Gen SCF=(maxcycle=400) Pseudo=Read Int
 egral(NoXCTest) Pop=Regular MaxDisk=500GB Guess=Read IOp(5/15=2)
 ----------------------------------------------------------------------

 ---
 CuH
 ---
 Symbolic Z-matrix:
 Charge =  0 Multiplicity = 1

                         Standard orientation:
 ---------------------------------------------------------------------
 Center     Atomic      Atomic             Coordinates (Angstroms)
 Number     Number       Type             X           Y           Z
 ---------------------------------------------------------------------
      1         29           0        0.000000    0.000000    0.040000
      2          1           0        0.000000    0.000000   -1.160000
 ---------------------------------------------------------------------

 SCF Done:  E(ROHF) =  -196.743324713     A.U. after    8 cycles
 E2 =    -0.1182278057D+01 EUMP2 =    -0.19792560277021D+03
 CCSD(T)
 CCSD(T)= -0.19783960379D+03

 The electronic state is 1-SG.
 Alpha  occ. eigenvalues --   -4.96498  -3.38079  -3.36623  -3.36623  -0.55741
 Alpha  occ. eigenvalues --   -0.52438  -0.52438  -0.51179  -0.51179  -0.33447
 Alpha virt. eigenvalues --    0.00591   0.02672   0.02672   0.03021   0.05519
 Alpha virt. eigenvalues --    0.08915   0.08915   0.09155   0.13367   0.13367
 Alpha virt. eigenvalues --    0.13413   0.14034   0.14034   0.20230   0.22818

 Mulliken charges and spin densities:
               1          2
     1  Cu   0.314777   0.000000
     2  H   -0.314777   0.000000
 Sum of Mulliken charges =   0.00000   0.00000

 Dipole moment (field-independent basis, Debye):
    X=              0.0000    Y=              0.0000    Z=              3.4046  Tot=              3.4046
 Quadrupole moment (field-independent basis, Debye-Ang):
   XX=            -13.8906   YY=            -13.8906   ZZ=            -14.6022
   XY=              0.0000   XZ=              0.0000   YZ=              0.0000

 P ROCCSD(T)=(MaxCyc=150, Full)/Gen SCF=(maxcycle=400) Pseudo=Read Inte
 2-0=-197.9256028\MP4SDQ=-197.8775424\CCSD=-197.7985659\CCSD(T)=-197.83
 Normal termination of Gaussian 16 at Wed Apr  4 19:52:58 2018.
