 Gaussian 16, Revision A.03,
 Gaussian 16:  ES64L-G16RevA.03 25-Dec-2016

 ----------------------------------------------------------------------
 #P ROCCSD(T)=(MaxCyc=150, Full)/Gen SCF=(maxcycle=400) Pseudo=Read Int
 egral(NoXCTest) Pop=Regular MaxDisk=500GB Guess=Read IOp(5/15=2)
 ----------------------------------------------------------------------

 ---
 CuH
 ---
 Symbolic Z-matrix:
 Charge =  0 Multiplicity = 1

                         Standard orientation:
 ---------------------------------------------------------------------
 Center     Atomic      Atomic             Coordinates (Angstroms)
 Number     Number       Type             X           Y           Z
 ---------------------------------------------------------------------
      1         29           0        0.000000    0.000000    0.040000
      2          1           0        0.000000    0.000000   -1.160000
 ---------------------------------------------------------------------

 SCF Done:  E(ROHF) =  -196.743479093     A.U. after    8 cycles
 E2 =    -0.1206907548D+01 EUMP2 =    -0.19795038664141D+03
 CCSD(T)
 CCSD(T)= -0.19786210370D+03

 The electronic state is 1-SG.
 Alpha  occ. eigenvalues --   -4.96501  -3.38080  -3.36624  -3.36624  -0.55741
 Alpha  occ. eigenvalues --   -0.52442  -0.52442  -0.51181  -0.51181  -0.33448
 Alpha virt. eigenvalues --    0.00489   0.02584   0.02584   0.02751   0.04669
 Alpha virt. eigenvalues --    0.07890   0.08552   0.08552   0.11930   0.11930
 Alpha virt. eigenvalues --    0.12003   0.12601   0.12601   0.15096   0.18762

 Mulliken charges and spin densities:
               1          2
     1  Cu   0.306677   0.000000
     2  H   -0.306677   0.000000
 Sum of Mulliken charges =  -0.00000   0.00000

 Dipole moment (field-independent basis, Debye):
    X=              0.0000    Y=              0.0000    Z=              3.4030  Tot=              3.4030
 Quadrupole moment (field-independent basis, Debye-Ang):
   XX=            -13.8891   YY=            -13.8891   ZZ=            -14.6044
   XY=              0.0000   XZ=              0.0000   YZ=              0.0000

 P ROCCSD(T)=(MaxCyc=150, Full)/Gen SCF=(maxcycle=400) Pseudo=Read Inte
 2-0=-197.9503866\MP4SDQ=-197.8987487\CCSD=-197.8203193\CCSD(T)=-197.86
 Normal termination of Gaussian 16 at Wed Apr  4 22:39:09 2018.
