 Gaussian 16, Revision A.03,
 Gaussian 16:  ES64L-G16RevA.03 25-Dec-2016

 ----------------------------------------------------------------------
 #P ROCCSD(T)=(MaxCyc=150, Full)/Gen SCF=(maxcycle=400) Pseudo=Read Int
 egral(NoXCTest) Pop=Regular MaxDisk=500GB Guess=Read IOp(5/15=2)
 ----------------------------------------------------------------------

 ---
 CuH
 ---
 Symbolic Z-matrix:
 Charge =  0 Multiplicity = 1

                         Standard orientation:
 ---------------------------------------------------------------------
 Center     Atomic      Atomic             Coordinates (Angstroms)
 Number     Number       Type             X           Y           Z
 ---------------------------------------------------------------------
      1         29           0        0.000000    0.000000    0.040000
      2          1           0        0.000000    0.000000   -1.160000
 ---------------------------------------------------------------------

 SCF Done:  E(ROHF) =  -196.740156491     A.U. after   13 cycles
 E2 =    -0.1130715626D+01 EUMP2 =    -0.19787087211781D+03
 CCSD(T)
 CCSD(T)= -0.19778643975D+03

 The electronic state is 1-SG.
 Alpha  occ. eigenvalues --   -4.96536  -3.38118  -3.36655  -3.36655  -0.55743
 Alpha  occ. eigenvalues --   -0.52433  -0.52433  -0.51170  -0.51170  -0.33446
 Alpha virt. eigenvalues --    0.00625   0.02957   0.02957   0.03333   0.05943
 Alpha virt. eigenvalues --    0.10099   0.10231   0.10231   0.17263   0.19270
 Alpha virt. eigenvalues --    0.19270   0.20576   0.20576   0.22125   0.25973

 Mulliken charges and spin densities:
               1          2
     1  Cu   0.320806   0.000000
     2  H   -0.320806   0.000000
 Sum of Mulliken charges =  -0.00000   0.00000

 Dipole moment (field-independent basis, Debye):
    X=              0.0000    Y=              0.0000    Z=              3.4141  Tot=              3.4141
 Quadrupole moment (field-independent basis, Debye-Ang):
   XX=            -13.8999   YY=            -13.8999   ZZ=            -14.5868
   XY=              0.0000   XZ=              0.0000   YZ=              0.0000

 P ROCCSD(T)=(MaxCyc=150, Full)/Gen SCF=(maxcycle=400) Pseudo=Read Inte
 2-0=-197.8708721\MP4SDQ=-197.8273087\CCSD=-197.7474337\CCSD(T)=-197.78
 Normal termination of Gaussian 16 at Wed Apr  4 18:59:36 2018.
