 Gaussian 16, Revision A.03,
 Gaussian 16:  ES64L-G16RevA.03 25-Dec-2016

 ----------------------------------------------------------------------
 #P ROCCSD(T)=(MaxCyc=150, Full)/Gen SCF=(maxcycle=400) Pseudo=Read Int
 egral(NoXCTest) Pop=Regular MaxDisk=500GB Guess=Read IOp(5/15=2)
 ----------------------------------------------------------------------

 ---
 CoO
 ---
 Symbolic Z-matrix:
 Charge =  0 Multiplicity = 4

                         Standard orientation:
 ---------------------------------------------------------------------
 Center     Atomic      Atomic             Coordinates (Angstroms)
 Number     Number       Type             X           Y           Z
 ---------------------------------------------------------------------
      1         27           0        0.000000    0.000000    0.320000
      2          8           0        0.000000    0.000000   -1.080000
 ---------------------------------------------------------------------

 SCF Done:  E(ROHF) =  -160.551172163     A.U. after   20 cycles
 E2 =    -0.1184329709D+01 EUMP2 =    -0.16173550187205D+03
 CCSD(T)
 CCSD(T)= -0.16173956564D+03

 Unable to determine electronic state:  partially filled degenerate orbitals.
 Alpha  occ. eigenvalues --   -4.71608  -3.24669  -3.22594  -3.22594  -1.24031
 Alpha  occ. eigenvalues --   -0.79680  -0.79680  -0.75171  -0.69994  -0.67526
 Alpha  occ. eigenvalues --   -0.43275  -0.43275  -0.35878
 Alpha virt. eigenvalues --   -0.02370   0.02301   0.02301   0.02897   0.03609
 Alpha virt. eigenvalues --    0.07008   0.07008   0.07091   0.07286   0.07295
 Alpha virt. eigenvalues --    0.08934   0.08934   0.12608   0.15226   0.21657

 Mulliken charges and spin densities:
               1          2
     1  Co   0.920386   2.801355
     2  O   -0.920386   0.198645
 Sum of Mulliken charges =  -0.00000   3.00000

 Dipole moment (field-independent basis, Debye):
    X=              0.0000    Y=              0.0000    Z=              5.6873  Tot=              5.6873
 Quadrupole moment (field-independent basis, Debye-Ang):
   XX=            -19.1073   YY=            -19.1073   ZZ=            -20.0039
   XY=              0.0000   XZ=              0.0000   YZ=              0.0000

 \\#P ROCCSD(T)=(MaxCyc=150, Full)/Gen SCF=(maxcycle=400) Pseudo=Read I
 .7355019\MP4SDQ=-161.7016911\CCSD=-161.6845845\CCSD(T)=-161.7395656\RM
 Normal termination of Gaussian 16 at Sat Mar 31 16:53:33 2018.
