 Gaussian 16, Revision A.03,
 Gaussian 16:  ES64L-G16RevA.03 25-Dec-2016

 ----------------------------------------------------------------------
 #P ROCCSD(T)=(MaxCyc=150, Full)/Gen SCF=(maxcycle=400) Pseudo=Read Int
 egral(NoXCTest) Pop=Regular MaxDisk=500GB Guess=Read IOp(5/15=2)
 ----------------------------------------------------------------------

 ---
 CoO
 ---
 Symbolic Z-matrix:
 Charge =  0 Multiplicity = 4

                         Standard orientation:
 ---------------------------------------------------------------------
 Center     Atomic      Atomic             Coordinates (Angstroms)
 Number     Number       Type             X           Y           Z
 ---------------------------------------------------------------------
      1         27           0        0.000000    0.000000    0.320000
      2          8           0        0.000000    0.000000   -1.080000
 ---------------------------------------------------------------------

 SCF Done:  E(ROHF) =  -160.547817407     A.U. after   26 cycles
 E2 =    -0.1132227571D+01 EUMP2 =    -0.16168004497773D+03
 CCSD(T)
 CCSD(T)= -0.16168672008D+03

 Unable to determine electronic state:  partially filled degenerate orbitals.
 Alpha  occ. eigenvalues --   -4.71654  -3.24699  -3.22618  -3.22618  -1.24075
 Alpha  occ. eigenvalues --   -0.79672  -0.79672  -0.75165  -0.69987  -0.67528
 Alpha  occ. eigenvalues --   -0.43262  -0.43262  -0.35894
 Alpha virt. eigenvalues --   -0.02372   0.02607   0.02607   0.03155   0.03968
 Alpha virt. eigenvalues --    0.08612   0.08612   0.10251   0.11138   0.11164
 Alpha virt. eigenvalues --    0.11756   0.11756   0.14401   0.16363   0.26047

 Mulliken charges and spin densities:
               1          2
     1  Co   0.954252   2.798777
     2  O   -0.954252   0.201223
 Sum of Mulliken charges =  -0.00000   3.00000

 Dipole moment (field-independent basis, Debye):
    X=              0.0000    Y=              0.0000    Z=              5.6991  Tot=              5.6991
 Quadrupole moment (field-independent basis, Debye-Ang):
   XX=            -19.1070   YY=            -19.1070   ZZ=            -20.0214
   XY=              0.0000   XZ=              0.0000   YZ=              0.0000

 \\#P ROCCSD(T)=(MaxCyc=150, Full)/Gen SCF=(maxcycle=400) Pseudo=Read I
 80045\MP4SDQ=-161.6519462\CCSD=-161.6340862\CCSD(T)=-161.6867201\RMSD=
 Normal termination of Gaussian 16 at Sat Mar 31 14:39:04 2018.
