 Gaussian 16, Revision A.03,
 Gaussian 16:  ES64L-G16RevA.03 25-Dec-2016

 ----------------------------------------------------------------------
 #P ROCCSD(T)=(MaxCyc=150, FrzINGC)/Gen SCF=(maxcycle=400, vshift=200)
 Integral(DKHSO, NoXCTest) Pop=Regular MaxDisk=500GB Guess=Read IOp(5/1
 5=2)
 ----------------------------------------------------------------------

 ---
 CuH
 ---
 Symbolic Z-matrix:
 Charge =  0 Multiplicity = 1

                         Standard orientation:
 ---------------------------------------------------------------------
 Center     Atomic      Atomic             Coordinates (Angstroms)
 Number     Number       Type             X           Y           Z
 ---------------------------------------------------------------------
      1         29           0        0.000000    0.000000    0.046667
      2          1           0        0.000000    0.000000   -1.353333
 ---------------------------------------------------------------------

 SCF Done:  E(ROHF) =  -1653.71169907     A.U. after   10 cycles
 E2 =    -0.1166010502D+01 EUMP2 =    -0.16548777095757D+04
 CCSD(T)
 CCSD(T)= -0.16547758536D+04

 The electronic state is 1-SG.
 Alpha  occ. eigenvalues -- -332.50912 -41.68524 -35.82466 -35.82466 -35.82401
 Alpha  occ. eigenvalues --   -5.17894  -3.38761  -3.38076  -3.38076  -0.51631
 Alpha  occ. eigenvalues --   -0.50330  -0.50330  -0.49872  -0.49872  -0.34073
 Alpha virt. eigenvalues --    0.00225   0.02577   0.02577   0.02900   0.04451
 Alpha virt. eigenvalues --    0.07770   0.08645   0.08645   0.12076   0.12076
 Alpha virt. eigenvalues --    0.12093   0.12527   0.12527   0.15302   0.18662

 Mulliken charges and spin densities:
               1          2
     1  Cu   0.304349   0.000000
     2  H   -0.304349   0.000000
 Sum of Mulliken charges =  -0.00000   0.00000

 Dipole moment (field-independent basis, Debye):
    X=             -0.0000    Y=              0.0000    Z=              3.7589  Tot=              3.7589
 Quadrupole moment (field-independent basis, Debye-Ang):
   XX=            -13.9109   YY=            -13.9109   ZZ=            -15.6848
   XY=              0.0000   XZ=              0.0000   YZ=             -0.0000

  ROCCSD(T)=(MaxCyc=150, FrzINGC)/Gen SCF=(maxcycle=400, vshift=200) In
 Normal termination of Gaussian 16 at Thu Apr  5 05:37:11 2018.
