 Gaussian 16, Revision A.03,
 Gaussian 16:  ES64L-G16RevA.03 25-Dec-2016

 ----------------------------------------------------------------------
 #P ROCCSD(T)=(MaxCyc=150, FrzINGC)/Gen SCF=(maxcycle=400, vshift=200)
 Integral(DKHSO, NoXCTest) Pop=Regular MaxDisk=500GB Guess=Read IOp(5/1
 5=2)
 ----------------------------------------------------------------------

 ---
 CuH
 ---
 Symbolic Z-matrix:
 Charge =  0 Multiplicity = 1

                         Standard orientation:
 ---------------------------------------------------------------------
 Center     Atomic      Atomic             Coordinates (Angstroms)
 Number     Number       Type             X           Y           Z
 ---------------------------------------------------------------------
      1         29           0        0.000000    0.000000    0.046667
      2          1           0        0.000000    0.000000   -1.353333
 ---------------------------------------------------------------------

 SCF Done:  E(ROHF) =  -1653.70912571     A.U. after   15 cycles
 E2 =    -0.1090840370D+01 EUMP2 =    -0.16547999660782D+04
 CCSD(T)
 CCSD(T)= -0.16547015205D+04

 The electronic state is 1-SG.
 Alpha  occ. eigenvalues -- -332.50900 -41.68540 -35.82485 -35.82485 -35.82422
 Alpha  occ. eigenvalues --   -5.17902  -3.38773  -3.38082  -3.38082  -0.51631
 Alpha  occ. eigenvalues --   -0.50324  -0.50324  -0.49862  -0.49862  -0.34068
 Alpha virt. eigenvalues --    0.00326   0.02956   0.02956   0.03506   0.05622
 Alpha virt. eigenvalues --    0.10032   0.10378   0.10378   0.17231   0.19536
 Alpha virt. eigenvalues --    0.19536   0.20454   0.20454   0.21691   0.25927

 Mulliken charges and spin densities:
               1          2
     1  Cu   0.355067   0.000000
     2  H   -0.355067   0.000000
 Sum of Mulliken charges =   0.00000   0.00000

 Dipole moment (field-independent basis, Debye):
    X=              0.0000    Y=              0.0000    Z=              3.7709  Tot=              3.7709
 Quadrupole moment (field-independent basis, Debye-Ang):
   XX=            -13.9227   YY=            -13.9227   ZZ=            -15.6659
   XY=              0.0000   XZ=              0.0000   YZ=              0.0000

  ROCCSD(T)=(MaxCyc=150, FrzINGC)/Gen SCF=(maxcycle=400, vshift=200) In
 \CCSD(T)=-1654.7015205\RMSD=8.943e-09\PG=C*V [C*(H1Cu1)]\\@
 Normal termination of Gaussian 16 at Wed Apr  4 18:59:31 2018.
