 Gaussian 16, Revision A.03,
 Gaussian 16:  ES64L-G16RevA.03 25-Dec-2016

 ----------------------------------------------------------------------
 #P ROCCSD(T)=(maxcyc=150, Full)/Gen 5d 7f SCF=(maxcycles=300, NoVarAcc
 , VShift=200) MaxDisk=100GB Pop=Regular Pseudo=Read Guess=Read IOp(5/1
 5=2)
 ----------------------------------------------------------------------

 --
 Mn
 --
 Symbolic Z-matrix:
 Charge =  0 Multiplicity = 6

                         Standard orientation:
 ---------------------------------------------------------------------
 Center     Atomic      Atomic             Coordinates (Angstroms)
 Number     Number       Type             X           Y           Z
 ---------------------------------------------------------------------
      1         25           0        0.000000    0.000000    0.000000
 ---------------------------------------------------------------------

 SCF Done:  E(ROHF) =  -103.699841519     A.U. after   20 cycles
 E2 =    -0.6002137364D+00 EUMP2 =    -0.10430005525514D+03
 CCSD(T)
 CCSD(T)= -0.10431973170D+03

 The electronic state is 6-A1G.
 Alpha  occ. eigenvalues --   -4.13016  -2.75774  -2.75774  -2.75774  -0.63846
 Alpha  occ. eigenvalues --   -0.63846  -0.63846  -0.63846  -0.63846  -0.26715
 Alpha virt. eigenvalues --    0.01751   0.01751   0.01751   0.02546   0.05865
 Alpha virt. eigenvalues --    0.05865   0.05865   0.06094   0.06094   0.06094
 Alpha virt. eigenvalues --    0.06094   0.06094   0.13402   0.19334   0.19334

 Mulliken charges and spin densities:
               1          2
     1  Mn  -0.000000   5.000000
 Sum of Mulliken charges =  -0.00000   5.00000

 Dipole moment (field-independent basis, Debye):
    X=              0.0000    Y=              0.0000    Z=              0.0000  Tot=              0.0000
 Quadrupole moment (field-independent basis, Debye-Ang):
   XX=            -18.7775   YY=            -18.7775   ZZ=            -18.7775
   XY=             -0.0000   XZ=             -0.0000   YZ=              0.0000

 1\1\GINC-C506-093\SP\ROCCSD(T)-Full\Gen\Mn1(6)\AANNABE\04-Apr-2018\0\\
 #P ROCCSD(T)=(maxcyc=150, Full)/Gen 5d 7f SCF=(maxcycles=300, NoVarAcc
 , VShift=200) MaxDisk=100GB Pop=Regular Pseudo=Read Guess=Read IOp(5/1
 5=2)\\Mn\\0,6\Mn,0,0.,0.,0.\\Version=ES64L-G16RevA.03\State=6-A1G\HF=-
 103.6998415\MP2=-104.3000553\MP3=-104.2983492\PUHF=-103.6998415\PMP2-0
 =-104.3000553\MP4SDQ=-104.301169\CCSD=-104.3012181\CCSD(T)=-104.319731
 7\RMSD=7.206e-09\PG=OH [O(Mn1)]\\@

 Normal termination of Gaussian 16 at Wed Apr  4 07:36:50 2018.
