 Gaussian 16, Revision A.03,
 Gaussian 16:  ES64L-G16RevA.03 25-Dec-2016

 ----------------------------------------------------------------------
 #P ROCCSD(T)=(MaxCyc=150, Full)/Gen SCF=(maxcycle=400) Integral(DKHSO,
  NoXCTest) Pop=Regular MaxDisk=500GB
 ----------------------------------------------------------------------

 ---
 FeO
 ---
 Symbolic Z-matrix:
 Charge =  0 Multiplicity = 5

                         Standard orientation:
 ---------------------------------------------------------------------
 Center     Atomic      Atomic             Coordinates (Angstroms)
 Number     Number       Type             X           Y           Z
 ---------------------------------------------------------------------
      1         26           0        0.000000    0.000000    0.329412
      2          8           0        0.000000    0.000000   -1.070588
 ---------------------------------------------------------------------

 SCF Done:  E(ROHF) =  -1346.12642984     A.U. after   30 cycles
 E2 =    -0.1560789144D+01 EUMP2 =    -0.13476872189866D+04
 CCSD(T)
 CCSD(T)= -0.13476647769D+04

 Unable to determine electronic state:  partially filled degenerate orbitals.
 Alpha  occ. eigenvalues -- -263.69465 -32.49894 -27.57688 -27.55526 -27.55526
 Alpha  occ. eigenvalues --  -20.51651  -4.39383  -2.96600  -2.91408  -2.91408
 Alpha  occ. eigenvalues --   -1.23324  -0.72570  -0.72570  -0.63531  -0.59155
 Alpha  occ. eigenvalues --   -0.57804  -0.41898  -0.41898  -0.32759
 Alpha virt. eigenvalues --    0.00365   0.02085   0.02085   0.03287   0.04061
 Alpha virt. eigenvalues --    0.06363   0.06363   0.06625   0.06634   0.06823
 Alpha virt. eigenvalues --    0.07853   0.07853   0.11981   0.14817   0.19344

 Mulliken charges and spin densities:
               1          2
     1  Fe   0.981143   3.765402
     2  O   -0.981143   0.234598
 Sum of Mulliken charges =  -0.00000   4.00000

 Dipole moment (field-independent basis, Debye):
    X=              0.0000    Y=              0.0000    Z=              4.7530  Tot=              4.7530
 Quadrupole moment (field-independent basis, Debye-Ang):
   XX=            -19.3901   YY=            -19.3901   ZZ=            -21.7557
   XY=              0.0000   XZ=              0.0000   YZ=              0.0000

 \\#P ROCCSD(T)=(MaxCyc=150, Full)/Gen SCF=(maxcycle=400) Integral(DKHS
 4443\CCSD=-1347.61406\CCSD(T)=-1347.6647769\RMSD=9.728e-09\PG=C*V [C*(
 Normal termination of Gaussian 16 at Thu Mar  1 09:11:57 2018.
