 Gaussian 16, Revision A.03,
 Gaussian 16:  ES64L-G16RevA.03 25-Dec-2016

 ----------------------------------------------------------------------
 #P ROCCSD(T)=(maxcyc=150, Full, SaveAmplitudes, ReadAmplitudes)/Gen 5d
  7f SCF=(maxcycles=300) Integral(NoXCTest) MaxDisk=500GB Pop=Regular P
 seudo=Read Guess=Read
 ----------------------------------------------------------------------

 ---
 ScO
 ---
 Symbolic Z-matrix:
 Charge =  0 Multiplicity = 2

                         Standard orientation:
 ---------------------------------------------------------------------
 Center     Atomic      Atomic             Coordinates (Angstroms)
 Number     Number       Type             X           Y           Z
 ---------------------------------------------------------------------
      1         21           0        0.000000    0.000000    0.413793
      2          8           0        0.000000    0.000000   -1.086207
 ---------------------------------------------------------------------

 SCF Done:  E(ROHF) =  -62.0477802296     A.U. after   17 cycles
 E2 =    -0.7057774113D+00 EUMP2 =    -0.62753557640902D+02
 CCSD(T)
 CCSD(T)= -0.62778309405D+02

 The electronic state is 2-SG.
 Alpha  occ. eigenvalues --   -2.64256  -1.68495  -1.58040  -1.58040  -1.11476
 Alpha  occ. eigenvalues --   -0.47807  -0.47807  -0.44940  -0.22685
 Alpha virt. eigenvalues --    0.00596   0.00596   0.01754   0.02103   0.02765
 Alpha virt. eigenvalues --    0.02765   0.02995   0.02995   0.03116   0.03660
 Alpha virt. eigenvalues --    0.03660   0.05725   0.07648   0.07648   0.09262

 Mulliken charges and spin densities:
               1          2
     1  Sc   1.208439   0.994644
     2  O   -1.208439   0.005356
 Sum of Mulliken charges =  -0.00000   1.00000

 Dipole moment (field-independent basis, Debye):
    X=              0.0000    Y=              0.0000    Z=              2.8320  Tot=              2.8320
 Quadrupole moment (field-independent basis, Debye-Ang):
   XX=            -21.9347   YY=            -21.9347   ZZ=            -30.8143
   XY=              0.0000   XZ=              0.0000   YZ=              0.0000

 \\#P ROCCSD(T)=(maxcyc=150, Full, SaveAmplitudes, ReadAmplitudes)/Gen
 477802\PMP2-0=-62.7535576\CCSD=-62.7415094\CCSD(T)=-62.7783094\RMSD=1.
 Normal termination of Gaussian 16 at Tue Feb 27 14:20:26 2018.
