 Gaussian 16, Revision A.03,
 Gaussian 16:  ES64L-G16RevA.03 25-Dec-2016

 ----------------------------------------------------------------------
 #P ROCCSD(T)=(MaxCyc=150, Full)/Gen SCF=(maxcycle=400) Pseudo=Read Int
 egral(NoXCTest) Pop=Regular MaxDisk=500GB Guess=Read IOp(5/15=2)
 ----------------------------------------------------------------------

 ---
 CuH
 ---
 Symbolic Z-matrix:
 Charge =  0 Multiplicity = 1

                         Standard orientation:
 ---------------------------------------------------------------------
 Center     Atomic      Atomic             Coordinates (Angstroms)
 Number     Number       Type             X           Y           Z
 ---------------------------------------------------------------------
      1         29           0        0.000000    0.000000    0.050000
      2          1           0        0.000000    0.000000   -1.450000
 ---------------------------------------------------------------------

 SCF Done:  E(ROHF) =  -196.530981796     A.U. after    1 cycles
 E2 =    -0.1102321353D+01 EUMP2 =    -0.19763330314900D+03
 CCSD(T)
 CCSD(T)= -0.19755131202D+03

 The electronic state is 1-SG.
 Alpha  occ. eigenvalues --   -5.24643  -3.36606  -3.36248  -3.36248  -0.50565
 Alpha  occ. eigenvalues --   -0.49880  -0.49880  -0.49707  -0.49707  -0.33996
 Alpha virt. eigenvalues --    0.00129   0.02934   0.02934   0.03593   0.05392
 Alpha virt. eigenvalues --    0.10019   0.10334   0.10334   0.17204   0.19622
 Alpha virt. eigenvalues --    0.19622   0.20355   0.20355   0.21313   0.25896

 Mulliken charges and spin densities:
               1          2
     1  Cu   0.366389   0.000000
     2  H   -0.366389   0.000000
 Sum of Mulliken charges =  -0.00000   0.00000

 Dipole moment (field-independent basis, Debye):
    X=              0.0000    Y=              0.0000    Z=              3.9849  Tot=              3.9849
 Quadrupole moment (field-independent basis, Debye-Ang):
   XX=            -13.6366   YY=            -13.6366   ZZ=            -15.9861
   XY=              0.0000   XZ=              0.0000   YZ=              0.0000

 P ROCCSD(T)=(MaxCyc=150, Full)/Gen SCF=(maxcycle=400) Pseudo=Read Inte
 2-0=-197.6333031\MP4SDQ=-197.5916853\CCSD=-197.514018\CCSD(T)=-197.551
 Normal termination of Gaussian 16 at Wed Apr  4 23:00:44 2018.
