 Gaussian 16, Revision A.03,
 Gaussian 16:  ES64L-G16RevA.03 25-Dec-2016

 ----------------------------------------------------------------------
 #P ROCCSD(T)=(MaxCyc=150, Full)/Gen SCF=(maxcycle=400) Pseudo=Read Int
 egral(NoXCTest) Pop=Regular MaxDisk=500GB Guess=Read IOp(5/15=2)
 ----------------------------------------------------------------------

 ---
 CuH
 ---
 Symbolic Z-matrix:
 Charge =  0 Multiplicity = 1

                         Standard orientation:
 ---------------------------------------------------------------------
 Center     Atomic      Atomic             Coordinates (Angstroms)
 Number     Number       Type             X           Y           Z
 ---------------------------------------------------------------------
      1         29           0        0.000000    0.000000    0.050000
      2          1           0        0.000000    0.000000   -1.450000
 ---------------------------------------------------------------------

 SCF Done:  E(ROHF) =  -196.533576939     A.U. after    7 cycles
 E2 =    -0.1179282248D+01 EUMP2 =    -0.19771285918642D+03
 CCSD(T)
 CCSD(T)= -0.19762711779D+03

 The electronic state is 1-SG.
 Alpha  occ. eigenvalues --   -5.24635  -3.36586  -3.36235  -3.36235  -0.50565
 Alpha  occ. eigenvalues --   -0.49887  -0.49887  -0.49717  -0.49717  -0.34002
 Alpha virt. eigenvalues --    0.00046   0.02556   0.02556   0.02975   0.04270
 Alpha virt. eigenvalues --    0.07727   0.08602   0.08602   0.12118   0.12118
 Alpha virt. eigenvalues --    0.12136   0.12473   0.12473   0.15189   0.18592

 Mulliken charges and spin densities:
               1          2
     1  Cu   0.301411   0.000000
     2  H   -0.301411   0.000000
 Sum of Mulliken charges =  -0.00000   0.00000

 Dipole moment (field-independent basis, Debye):
    X=              0.0000    Y=              0.0000    Z=              3.9732  Tot=              3.9732
 Quadrupole moment (field-independent basis, Debye-Ang):
   XX=            -13.6246   YY=            -13.6246   ZZ=            -16.0053
   XY=              0.0000   XZ=              0.0000   YZ=              0.0000

 P ROCCSD(T)=(MaxCyc=150, Full)/Gen SCF=(maxcycle=400) Pseudo=Read Inte
 -0=-197.7128592\MP4SDQ=-197.6633349\CCSD=-197.5869856\CCSD(T)=-197.627
 Normal termination of Gaussian 16 at Thu Apr  5 02:41:37 2018.
