 Gaussian 16, Revision A.03,
 Gaussian 16:  ES64L-G16RevA.03 25-Dec-2016

 ----------------------------------------------------------------------
 #P ROCCSD(T)=(MaxCyc=150, Full)/Gen SCF=(maxcycle=400) Pseudo=Read Int
 egral(NoXCTest) Pop=Regular MaxDisk=500GB Guess=Read IOp(5/15=2)
 ----------------------------------------------------------------------

 ---
 CuH
 ---
 Symbolic Z-matrix:
 Charge =  0 Multiplicity = 1

                         Standard orientation:
 ---------------------------------------------------------------------
 Center     Atomic      Atomic             Coordinates (Angstroms)
 Number     Number       Type             X           Y           Z
 ---------------------------------------------------------------------
      1         29           0        0.000000    0.000000    0.050000
      2          1           0        0.000000    0.000000   -1.450000
 ---------------------------------------------------------------------

 SCF Done:  E(ROHF) =  -196.533737245     A.U. after   10 cycles
 E2 =    -0.1154343932D+01 EUMP2 =    -0.19768808117675D+03
 CCSD(T)
 CCSD(T)= -0.19760458312D+03

 The electronic state is 1-SG.
 Alpha  occ. eigenvalues --   -5.24629  -3.36581  -3.36230  -3.36230  -0.50564
 Alpha  occ. eigenvalues --   -0.49885  -0.49885  -0.49716  -0.49716  -0.34000
 Alpha virt. eigenvalues --    0.00113   0.02641   0.02641   0.03253   0.05028
 Alpha virt. eigenvalues --    0.08946   0.08967   0.08967   0.13456   0.13513
 Alpha virt. eigenvalues --    0.13513   0.13890   0.13890   0.19927   0.22177

 Mulliken charges and spin densities:
               1          2
     1  Cu   0.346013   0.000000
     2  H   -0.346013   0.000000
 Sum of Mulliken charges =  -0.00000   0.00000

 Dipole moment (field-independent basis, Debye):
    X=              0.0000    Y=              0.0000    Z=              3.9750  Tot=              3.9750
 Quadrupole moment (field-independent basis, Debye-Ang):
   XX=            -13.6259   YY=            -13.6259   ZZ=            -16.0030
   XY=              0.0000   XZ=              0.0000   YZ=              0.0000

 P ROCCSD(T)=(MaxCyc=150, Full)/Gen SCF=(maxcycle=400) Pseudo=Read Inte
 2-0=-197.6880812\MP4SDQ=-197.6420698\CCSD=-197.5652147\CCSD(T)=-197.60
 Normal termination of Gaussian 16 at Wed Apr  4 23:55:56 2018.
