 Gaussian 16, Revision A.03,
 Gaussian 16:  ES64L-G16RevA.03 25-Dec-2016

 ----------------------------------------------------------------------
 #P ROCCSD(T)=(maxcyc=150, Full)/Gen 5d 7f SCF=(maxcycles=300, NoVarAcc
 , VShift=300) MaxDisk=100GB Pop=Regular Pseudo=Read IOp(5/15=2)
 ----------------------------------------------------------------------

 --
 Cr
 --
 Symbolic Z-matrix:
 Charge =  0 Multiplicity = 7

                         Standard orientation:
 ---------------------------------------------------------------------
 Center     Atomic      Atomic             Coordinates (Angstroms)
 Number     Number       Type             X           Y           Z
 ---------------------------------------------------------------------
      1         24           0        0.000000    0.000000    0.000000
 ---------------------------------------------------------------------

 SCF Done:  E(ROHF) =  -86.3362212253     A.U. after   59 cycles
 E2 =    -0.5684815821D+00 EUMP2 =    -0.86904702807350D+02
 CCSD(T)
 CCSD(T)= -0.86915840724D+02

 The electronic state is 7-A1G.
 Alpha  occ. eigenvalues --   -3.51763  -2.28250  -2.28250  -2.28250  -0.36581
 Alpha  occ. eigenvalues --   -0.36581  -0.36581  -0.36581  -0.36581  -0.22604
 Alpha virt. eigenvalues --    0.01692   0.01692   0.01692   0.02418   0.05524
 Alpha virt. eigenvalues --    0.05524   0.05524   0.05524   0.05524   0.05875
 Alpha virt. eigenvalues --    0.05875   0.05875   0.12723   0.17956   0.17956

 Mulliken charges and spin densities:
               1          2
     1  Cr  -0.000000   6.000000
 Sum of Mulliken charges =  -0.00000   6.00000

 Dipole moment (field-independent basis, Debye):
    X=              0.0000    Y=              0.0000    Z=              0.0000  Tot=              0.0000
 Quadrupole moment (field-independent basis, Debye-Ang):
   XX=            -16.3617   YY=            -16.3617   ZZ=            -16.3617
   XY=              0.0000   XZ=              0.0000   YZ=             -0.0000

 1\1\GINC-C401-103\SP\ROCCSD(T)-Full\Gen\Cr1(7)\AANNABE\07-Mar-2018\0\\
 #P ROCCSD(T)=(maxcyc=150, Full)/Gen 5d 7f SCF=(maxcycles=300, NoVarAcc
 , VShift=300) MaxDisk=100GB Pop=Regular Pseudo=Read IOp(5/15=2)\\Cr\\0
 ,7\Cr,0,0.,0.,0.\\Version=ES64L-G16RevA.03\State=7-A1G\HF=-86.3362212\
 MP2=-86.9047028\MP3=-86.8956188\PUHF=-86.3362212\PMP2-0=-86.9047028\MP
 4SDQ=-86.8990476\CCSD=-86.8979486\CCSD(T)=-86.9158407\RMSD=8.884e-09\P
 G=OH [O(Cr1)]\\@

 Normal termination of Gaussian 16 at Wed Mar  7 17:47:30 2018.
