 Gaussian 16, Revision A.03,
 Gaussian 16:  ES64L-G16RevA.03 25-Dec-2016

 ----------------------------------------------------------------------
 #P ROCCSD(T)=(maxcyc=150, Full, SaveAmplitudes, ReadAmplitudes)/Gen 5d
  7f SCF=(maxcycles=300, VShift=400) Integral(NoXCTest) MaxDisk=500GB P
 op=Full Pseudo=Read Guess=Read IOp(5/15=2)
 ----------------------------------------------------------------------

 ---
 MnO
 ---
 Symbolic Z-matrix:
 Charge =  0 Multiplicity = 6

                         Standard orientation:
 ---------------------------------------------------------------------
 Center     Atomic      Atomic             Coordinates (Angstroms)
 Number     Number       Type             X           Y           Z
 ---------------------------------------------------------------------
      1         25           0        0.000000    0.000000    0.387879
      2          8           0        0.000000    0.000000   -1.212121
 ---------------------------------------------------------------------

 SCF Done:  E(ROHF) =  -119.349805732     A.U. after   46 cycles
 E2 =    -0.9116092479D+00 EUMP2 =    -0.12026141497973D+03
 CCSD(T)
 CCSD(T)= -0.12028946408D+03

 The electronic state is 6-SG.
 Alpha  occ. eigenvalues --   -4.11799  -2.74564  -2.74564  -2.73872  -1.14261
 Alpha  occ. eigenvalues --   -0.65014  -0.65014  -0.63252  -0.63252  -0.57694
 Alpha  occ. eigenvalues --   -0.34907  -0.34907  -0.33843
 Alpha virt. eigenvalues --   -0.03418   0.01779   0.01779   0.02244   0.03838
 Alpha virt. eigenvalues --    0.06940   0.06940   0.08290   0.08544   0.08544
 Alpha virt. eigenvalues --    0.09706   0.09706   0.13724   0.13938   0.23425

 Mulliken charges and spin densities:
               1          2
     1  Mn   1.142001   4.854076
     2  O   -1.142001   0.145924
 Sum of Mulliken charges =  -0.00000   5.00000

 Dipole moment (field-independent basis, Debye):
    X=              0.0000    Y=              0.0000    Z=              8.3784  Tot=              8.3784
 Quadrupole moment (field-independent basis, Debye-Ang):
   XX=            -18.6718   YY=            -18.6718   ZZ=            -22.9744
   XY=              0.0000   XZ=              0.0000   YZ=              0.0000

 \\#P ROCCSD(T)=(maxcyc=150, Full, SaveAmplitudes, ReadAmplitudes)/Gen
 DQ=-120.2567971\CCSD=-120.2477839\CCSD(T)=-120.2894641\RMSD=9.746e-09\
 Normal termination of Gaussian 16 at Wed Apr  4 02:23:46 2018.
