 Gaussian 16, Revision A.03,
 Gaussian 16:  ES64L-G16RevA.03 25-Dec-2016

 ----------------------------------------------------------------------
 #P ROCCSD(T)=(maxcyc=150, Full)/Gen 5d 7f SCF=(maxcycles=300, NoVarAcc
 , VShift=200) MaxDisk=100GB Pop=Regular Pseudo=Read Guess=Read
 ----------------------------------------------------------------------

 --
 Sc
 --
 Symbolic Z-matrix:
 Charge =  0 Multiplicity = 2

                         Standard orientation:
 ---------------------------------------------------------------------
 Center     Atomic      Atomic             Coordinates (Angstroms)
 Number     Number       Type             X           Y           Z
 ---------------------------------------------------------------------
      1         21           0        0.000000    0.000000    0.000000
 ---------------------------------------------------------------------

 SCF Done:  E(ROHF) =  -46.1103196267     A.U. after   22 cycles
 E2 =    -0.3701299846D+00 EUMP2 =    -0.46480449611371D+02
 CCSD(T)
 CCSD(T)= -0.46517583192D+02

 Unable to determine electronic state:  an orbital has unidentified symmetry.
 Alpha  occ. eigenvalues --   -2.62153  -1.63147  -1.63147  -1.59303  -0.34605
 Alpha  occ. eigenvalues --   -0.21502
 Alpha virt. eigenvalues --    0.01222   0.01321   0.01321   0.02288   0.03910
 Alpha virt. eigenvalues --    0.03919   0.03919   0.03940   0.04006   0.04762
 Alpha virt. eigenvalues --    0.04888   0.04888   0.10094   0.10427   0.10427

 Mulliken charges and spin densities:
               1          2
     1  Sc  -0.000000   1.000000
 Sum of Mulliken charges =  -0.00000   1.00000

 Dipole moment (field-independent basis, Debye):
    X=             -0.0000    Y=             -0.0000    Z=              0.0000  Tot=              0.0000
 Quadrupole moment (field-independent basis, Debye-Ang):
   XX=            -23.3964   YY=            -23.3964   ZZ=            -23.1016
   XY=             -0.0000   XZ=             -0.0000   YZ=             -0.0000

 1\1\GINC-C455-082\SP\ROCCSD(T)-Full\Gen\Sc1(2)\AANNABE\01-Apr-2018\0\\
 #P ROCCSD(T)=(maxcyc=150, Full)/Gen 5d 7f SCF=(maxcycles=300, NoVarAcc
 , VShift=200) MaxDisk=100GB Pop=Regular Pseudo=Read Guess=Read\\Sc\\0,
 2\Sc,0,0.,0.,0.\\Version=ES64L-G16RevA.03\HF=-46.1103196\MP2=-46.48044
 96\MP3=-46.5026873\PUHF=-46.1103196\PMP2-0=-46.4804496\MP4SDQ=-46.5027
 125\CCSD=-46.5029676\CCSD(T)=-46.5175832\RMSD=9.001e-09\PG=OH [O(Sc1)]
 \\@

 Normal termination of Gaussian 16 at Sun Apr  1 14:36:03 2018.
