 Gaussian 16, Revision A.03,
 Gaussian 16:  ES64L-G16RevA.03 25-Dec-2016

 ----------------------------------------------------------------------
 #P ROCCSD(T)=(maxcyc=150, Full, SaveAmplitudes, ReadAmplitudes)/Gen 5d
  7f SCF=(maxcycles=300, VShift=400) Integral(NoXCTest) MaxDisk=500GB P
 op=Full Pseudo=Read Guess=Read IOp(5/15=2)
 ----------------------------------------------------------------------

 ---
 MnO
 ---
 Symbolic Z-matrix:
 Charge =  0 Multiplicity = 6

                         Standard orientation:
 ---------------------------------------------------------------------
 Center     Atomic      Atomic             Coordinates (Angstroms)
 Number     Number       Type             X           Y           Z
 ---------------------------------------------------------------------
      1         25           0        0.000000    0.000000    0.339394
      2          8           0        0.000000    0.000000   -1.060606
 ---------------------------------------------------------------------

 SCF Done:  E(ROHF) =  -119.290493659     A.U. after   51 cycles
 E2 =    -0.9384488550D+00 EUMP2 =    -0.12022894251354D+03
 CCSD(T)
 CCSD(T)= -0.12023875496D+03

 The electronic state is 6-SG.
 Alpha  occ. eigenvalues --   -4.16247  -2.75079  -2.75079  -2.73021  -1.22947
 Alpha  occ. eigenvalues --   -0.70871  -0.70871  -0.63784  -0.63784  -0.55635
 Alpha  occ. eigenvalues --   -0.41106  -0.41106  -0.31768
 Alpha virt. eigenvalues --    0.01152   0.02181   0.02181   0.03359   0.05172
 Alpha virt. eigenvalues --    0.07119   0.07119   0.08704   0.08704   0.09382
 Alpha virt. eigenvalues --    0.09382   0.09459   0.12597   0.15530   0.23759

 Mulliken charges and spin densities:
               1          2
     1  Mn   0.917163   4.798720
     2  O   -0.917163   0.201280
 Sum of Mulliken charges =  -0.00000   5.00000

 Dipole moment (field-independent basis, Debye):
    X=              0.0000    Y=              0.0000    Z=              4.3123  Tot=              4.3123
 Quadrupole moment (field-independent basis, Debye-Ang):
   XX=            -19.5055   YY=            -19.5055   ZZ=            -22.9938
   XY=              0.0000   XZ=              0.0000   YZ=              0.0000

 \\#P ROCCSD(T)=(maxcyc=150, Full, SaveAmplitudes, ReadAmplitudes)/Gen
 4SDQ=-120.2148424\CCSD=-120.1967521\CCSD(T)=-120.238755\RMSD=8.487e-09
 Normal termination of Gaussian 16 at Sun Mar 18 19:00:56 2018.
