 Gaussian 16, Revision A.03,
 Gaussian 16:  ES64L-G16RevA.03 25-Dec-2016

 ----------------------------------------------------------------------
 #P ROCCSD(T)=(maxcyc=150, Full)/Gen 5d 7f SCF=(maxcycles=300) Integral
 (NoXCTest) MaxDisk=500GB Pop=Regular Pseudo=Read IOp(5/15=2) Guess=Rea
 d
 ----------------------------------------------------------------------

 ---
 ScH
 ---
 Symbolic Z-matrix:
 Charge =  0 Multiplicity = 1

                         Standard orientation:
 ---------------------------------------------------------------------
 Center     Atomic      Atomic             Coordinates (Angstroms)
 Number     Number       Type             X           Y           Z
 ---------------------------------------------------------------------
      1         21           0        0.000000    0.000000    0.090909
      2          1           0        0.000000    0.000000   -1.909091
 ---------------------------------------------------------------------

 SCF Done:  E(ROHF) =  -46.5909603087     A.U. after   11 cycles
 E2 =    -0.4180838073D+00 EUMP2 =    -0.47009044116015D+02
 CCSD(T)
 CCSD(T)= -0.47054469091D+02

 The electronic state is 1-SG.
 Alpha  occ. eigenvalues --   -2.71414  -1.68208  -1.68208  -1.68022  -0.37972
 Alpha  occ. eigenvalues --   -0.23932
 Alpha virt. eigenvalues --    0.00992   0.00992   0.01242   0.02033   0.02823
 Alpha virt. eigenvalues --    0.02823   0.02944   0.02944   0.02997   0.03841
 Alpha virt. eigenvalues --    0.03923   0.03923   0.06699   0.06699   0.07499

 Mulliken charges and spin densities:
               1          2
     1  Sc   0.274351   0.000000
     2  H   -0.274351   0.000000
 Sum of Mulliken charges =  -0.00000   0.00000

 Dipole moment (field-independent basis, Debye):
    X=              0.0000    Y=              0.0000    Z=              2.2161  Tot=              2.2161
 Quadrupole moment (field-independent basis, Debye-Ang):
   XX=            -22.9609   YY=            -22.9609   ZZ=            -28.3414
   XY=              0.0000   XZ=              0.0000   YZ=              0.0000

 P ROCCSD(T)=(maxcyc=150, Full)/Gen 5d 7f SCF=(maxcycles=300) Integral(
 MP2-0=-47.0090441\MP4SDQ=-47.0342325\CCSD=-47.0345932\CCSD(T)=-47.0544
 Normal termination of Gaussian 16 at Wed Feb 14 08:32:41 2018.
