 Gaussian 16, Revision A.03,
 Gaussian 16:  ES64L-G16RevA.03 25-Dec-2016

 ----------------------------------------------------------------------
 #P ROCCSD(T)=(MaxCyc=150, Full)/Gen SCF=(maxcycle=400) Integral(DKHSO,
  NoXCTest) Pop=Regular MaxDisk=500GB
 ----------------------------------------------------------------------

 ---
 FeO
 ---
 Symbolic Z-matrix:
 Charge =  0 Multiplicity = 5

                         Standard orientation:
 ---------------------------------------------------------------------
 Center     Atomic      Atomic             Coordinates (Angstroms)
 Number     Number       Type             X           Y           Z
 ---------------------------------------------------------------------
      1         26           0        0.000000    0.000000    0.305882
      2          8           0        0.000000    0.000000   -0.994118
 ---------------------------------------------------------------------

 SCF Done:  E(ROHF) =  -1346.04436172     A.U. after   28 cycles
 E2 =    -0.1495336573D+01 EUMP2 =    -0.13475396982982D+04
 CCSD(T)
 CCSD(T)= -0.13475157093D+04

 Unable to determine electronic state:  partially filled degenerate orbitals.
 Alpha  occ. eigenvalues -- -263.68585 -32.48912 -27.56750 -27.54514 -27.54514
 Alpha  occ. eigenvalues --  -20.55773  -4.38957  -2.97232  -2.90741  -2.90741
 Alpha  occ. eigenvalues --   -1.27813  -0.75910  -0.75910  -0.62642  -0.61552
 Alpha  occ. eigenvalues --   -0.58290  -0.43121  -0.43121  -0.30790
 Alpha virt. eigenvalues --    0.01796   0.02505   0.02505   0.03296   0.06100
 Alpha virt. eigenvalues --    0.08018   0.08018   0.09906   0.09936   0.10265
 Alpha virt. eigenvalues --    0.10265   0.10820   0.12619   0.16977   0.26207

 Mulliken charges and spin densities:
               1          2
     1  Fe   0.728252   3.748190
     2  O   -0.728252   0.251810
 Sum of Mulliken charges =  -0.00000   4.00000

 Dipole moment (field-independent basis, Debye):
    X=              0.0000    Y=              0.0000    Z=              2.9165  Tot=              2.9165
 Quadrupole moment (field-independent basis, Debye-Ang):
   XX=            -19.6681   YY=            -19.6681   ZZ=            -22.0032
   XY=              0.0000   XZ=              0.0000   YZ=              0.0000

 \\#P ROCCSD(T)=(MaxCyc=150, Full)/Gen SCF=(maxcycle=400) Integral(DKHS
 023124\CCSD=-1347.4692489\CCSD(T)=-1347.5157093\RMSD=5.575e-09\PG=C*V
 Normal termination of Gaussian 16 at Thu Mar  1 07:24:31 2018.
