 Gaussian 16, Revision A.03,
 Gaussian 16:  ES64L-G16RevA.03 25-Dec-2016

 ----------------------------------------------------------------------
 #P ROCCSD(T)=(MaxCyc=150, Full)/Gen SCF=(maxcycle=400, vshift=200) Pse
 udo=Read Integral(NoXCTest) Pop=Regular MaxDisk=500GB Guess=Read IOp(5
 /15=2)
 ----------------------------------------------------------------------

 ---
 FeH
 ---
 Symbolic Z-matrix:
 Charge =  0 Multiplicity = 4

                         Standard orientation:
 ---------------------------------------------------------------------
 Center     Atomic      Atomic             Coordinates (Angstroms)
 Number     Number       Type             X           Y           Z
 ---------------------------------------------------------------------
      1         26           0        0.000000    0.000000    0.070370
      2          1           0        0.000000    0.000000   -1.829630
 ---------------------------------------------------------------------

 SCF Done:  E(ROHF) =  -123.283529749     A.U. after   29 cycles
 E2 =    -0.7919465182D+00 EUMP2 =    -0.12407547626698D+03
 CCSD(T)
 CCSD(T)= -0.12408187696D+03

 Unable to determine electronic state:  an orbital has unidentified symmetry.
 Alpha  occ. eigenvalues --   -4.15677  -2.77741  -2.77548  -2.77548  -0.48662
 Alpha  occ. eigenvalues --   -0.48662  -0.48559  -0.43591  -0.42582  -0.31395
 Alpha virt. eigenvalues --   -0.01095   0.02077   0.02077   0.03166   0.03418
 Alpha virt. eigenvalues --    0.06202   0.06674   0.06689   0.06871   0.06871
 Alpha virt. eigenvalues --    0.07634   0.07634   0.10324   0.15343   0.17572

 Mulliken charges and spin densities:
               1          2
     1  Fe   0.363432   2.998658
     2  H   -0.363432   0.001342
 Sum of Mulliken charges =  -0.00000   3.00000

 Dipole moment (field-independent basis, Debye):
    X=              0.0000    Y=              0.0000    Z=              5.2870  Tot=              5.2870
 Quadrupole moment (field-independent basis, Debye-Ang):
   XX=            -15.2255   YY=            -15.2255   ZZ=            -19.9620
   XY=              0.0000   XZ=              0.0000   YZ=              0.0000

 \\#P ROCCSD(T)=(MaxCyc=150, Full)/Gen SCF=(maxcycle=400, vshift=200) P
 \PMP2-0=-124.0754763\MP4SDQ=-124.0583311\CCSD=-124.0546946\CCSD(T)=-12
 Normal termination of Gaussian 16 at Sat Mar 24 01:25:22 2018.
