 Gaussian 16, Revision A.03,
 Gaussian 16:  ES64L-G16RevA.03 25-Dec-2016

 ----------------------------------------------------------------------
 #P ROCCSD(T)=(MaxCyc=150, Full)/Gen SCF=(maxcycle=400, vshift=200) Pse
 udo=Read Integral(NoXCTest) Pop=Regular MaxDisk=500GB Guess=Read IOp(5
 /15=2)
 ----------------------------------------------------------------------

 ---
 FeH
 ---
 Symbolic Z-matrix:
 Charge =  0 Multiplicity = 4

                         Standard orientation:
 ---------------------------------------------------------------------
 Center     Atomic      Atomic             Coordinates (Angstroms)
 Number     Number       Type             X           Y           Z
 ---------------------------------------------------------------------
      1         26           0        0.000000    0.000000    0.070370
      2          1           0        0.000000    0.000000   -1.829630
 ---------------------------------------------------------------------

 SCF Done:  E(ROHF) =  -123.283703526     A.U. after   17 cycles
 E2 =    -0.8061826817D+00 EUMP2 =    -0.12408988620765D+03
 CCSD(T)
 CCSD(T)= -0.12409425538D+03

 Unable to determine electronic state:  an orbital has unidentified symmetry.
 Alpha  occ. eigenvalues --   -4.15674  -2.77738  -2.77545  -2.77545  -0.48659
 Alpha  occ. eigenvalues --   -0.48659  -0.48557  -0.43593  -0.42586  -0.31395
 Alpha virt. eigenvalues --   -0.01110   0.02012   0.02012   0.02751   0.03008
 Alpha virt. eigenvalues --    0.05735   0.06116   0.06128   0.06372   0.06372
 Alpha virt. eigenvalues --    0.07264   0.07264   0.08986   0.12536   0.15527

 Mulliken charges and spin densities:
               1          2
     1  Fe   0.324360   2.997521
     2  H   -0.324360   0.002479
 Sum of Mulliken charges =  -0.00000   3.00000

 Dipole moment (field-independent basis, Debye):
    X=              0.0000    Y=              0.0000    Z=              5.2868  Tot=              5.2868
 Quadrupole moment (field-independent basis, Debye-Ang):
   XX=            -15.2234   YY=            -15.2234   ZZ=            -19.9654
   XY=              0.0000   XZ=              0.0000   YZ=              0.0000

 \\#P ROCCSD(T)=(MaxCyc=150, Full)/Gen SCF=(maxcycle=400, vshift=200) P
 \PMP2-0=-124.0898862\MP4SDQ=-124.0701475\CCSD=-124.0662097\CCSD(T)=-12
 Normal termination of Gaussian 16 at Sat Mar 24 03:22:07 2018.
