 Gaussian 16, Revision A.03,
 Gaussian 16:  ES64L-G16RevA.03 25-Dec-2016

 ----------------------------------------------------------------------
 #P ROCCSD(T)=(MaxCyc=150, Full)/Gen SCF=(maxcycle=400, vshift=200) Pse
 udo=Read Integral(NoXCTest) Pop=Regular MaxDisk=500GB Guess=Read IOp(5
 /15=2)
 ----------------------------------------------------------------------

 ---
 FeH
 ---
 Symbolic Z-matrix:
 Charge =  0 Multiplicity = 4

                         Standard orientation:
 ---------------------------------------------------------------------
 Center     Atomic      Atomic             Coordinates (Angstroms)
 Number     Number       Type             X           Y           Z
 ---------------------------------------------------------------------
      1         26           0        0.000000    0.000000    0.070370
      2          1           0        0.000000    0.000000   -1.829630
 ---------------------------------------------------------------------

 SCF Done:  E(ROHF) =  -123.282106758     A.U. after   40 cycles
 E2 =    -0.7560836166D+00 EUMP2 =    -0.12403819037427D+03
 CCSD(T)
 CCSD(T)= -0.12404659789D+03

 Unable to determine electronic state:  an orbital has unidentified symmetry.
 Alpha  occ. eigenvalues --   -4.15694  -2.77756  -2.77561  -2.77561  -0.48656
 Alpha  occ. eigenvalues --   -0.48656  -0.48553  -0.43582  -0.42571  -0.31393
 Alpha virt. eigenvalues --   -0.01088   0.02317   0.02317   0.03450   0.03696
 Alpha virt. eigenvalues --    0.08321   0.08321   0.09407   0.10034   0.10076
 Alpha virt. eigenvalues --    0.10351   0.10351   0.11159   0.16894   0.22265

 Mulliken charges and spin densities:
               1          2
     1  Fe   0.430772   2.999293
     2  H   -0.430772   0.000707
 Sum of Mulliken charges =  -0.00000   3.00000

 Dipole moment (field-independent basis, Debye):
    X=              0.0000    Y=              0.0000    Z=              5.2916  Tot=              5.2916
 Quadrupole moment (field-independent basis, Debye-Ang):
   XX=            -15.2392   YY=            -15.2392   ZZ=            -19.9479
   XY=              0.0000   XZ=              0.0000   YZ=              0.0000

 \\#P ROCCSD(T)=(MaxCyc=150, Full)/Gen SCF=(maxcycle=400, vshift=200) P
 \PMP2-0=-124.0381904\MP4SDQ=-124.0246044\CCSD=-124.0218807\CCSD(T)=-12
 Normal termination of Gaussian 16 at Sat Mar 24 00:39:00 2018.
