 Gaussian 16, Revision A.03,
 Gaussian 16:  ES64L-G16RevA.03 25-Dec-2016

 ----------------------------------------------------------------------
 #P ROCCSD(T)=(maxcyc=150, Full, SaveAmplitudes, ReadAmplitudes)/Gen 5d
  7f SCF=(maxcycles=300) Integral(NoXCTest) MaxDisk=500GB Pop=Regular P
 seudo=Read Guess=Read
 ----------------------------------------------------------------------

 ---
 CrO
 ---
 Symbolic Z-matrix:
 Charge =  0 Multiplicity = 5

                         Standard orientation:
 ---------------------------------------------------------------------
 Center     Atomic      Atomic             Coordinates (Angstroms)
 Number     Number       Type             X           Y           Z
 ---------------------------------------------------------------------
      1         24           0        0.000000    0.000000    0.350000
      2          8           0        0.000000    0.000000   -1.050000
 ---------------------------------------------------------------------

 SCF Done:  E(ROHF) =  -101.967222116     A.U. after   23 cycles
 E2 =    -0.9320550348D+00 EUMP2 =    -0.10289927715079D+03
 CCSD(T)
 CCSD(T)= -0.10291589622D+03

 Unable to determine electronic state:  an orbital has unidentified symmetry.
 Alpha  occ. eigenvalues --   -3.68927  -2.46441  -2.42195  -2.41364  -1.23811
 Alpha  occ. eigenvalues --   -0.65133  -0.56978  -0.53694  -0.53372  -0.51934
 Alpha  occ. eigenvalues --   -0.38630  -0.28708
 Alpha virt. eigenvalues --    0.00974   0.01607   0.02032   0.02721   0.04427
 Alpha virt. eigenvalues --    0.04887   0.05373   0.05375   0.05514   0.05721
 Alpha virt. eigenvalues --    0.06898   0.06924   0.10470   0.13552   0.14050

 Mulliken charges and spin densities:
               1          2
     1  Cr   0.981806   3.879291
     2  O   -0.981806   0.120709
 Sum of Mulliken charges =  -0.00000   4.00000

 Dipole moment (field-independent basis, Debye):
    X=              0.0000    Y=              0.0000    Z=              3.0924  Tot=              3.0924
 Quadrupole moment (field-independent basis, Debye-Ang):
   XX=            -20.9504   YY=            -19.6483   ZZ=            -24.2102
   XY=              0.0000   XZ=              0.0000   YZ=              0.0000

 \\#P ROCCSD(T)=(maxcyc=150, Full, SaveAmplitudes, ReadAmplitudes)/Gen
 MP2-0=-102.8992772\CCSD=-102.8686888\CCSD(T)=-102.9158962\RMSD=2.138e-
 Normal termination of Gaussian 16 at Mon Mar 12 16:09:07 2018.
