 Gaussian 16, Revision A.03,
 Gaussian 16:  ES64L-G16RevA.03 25-Dec-2016

 ----------------------------------------------------------------------
 #P ROCCSD(T)=(MaxCyc=150, Full)/Gen SCF=(maxcycle=400) Pseudo=Read Int
 egral(NoXCTest) Pop=Regular MaxDisk=500GB Guess=Read IOp(5/15=2)
 ----------------------------------------------------------------------

 ---
 CuH
 ---
 Symbolic Z-matrix:
 Charge =  0 Multiplicity = 1

                         Standard orientation:
 ---------------------------------------------------------------------
 Center     Atomic      Atomic             Coordinates (Angstroms)
 Number     Number       Type             X           Y           Z
 ---------------------------------------------------------------------
      1         29           0        0.000000    0.000000    0.036667
      2          1           0        0.000000    0.000000   -1.063333
 ---------------------------------------------------------------------

 SCF Done:  E(ROHF) =  -196.706051884     A.U. after    9 cycles
 E2 =    -0.1210282844D+01 EUMP2 =    -0.19791633472855D+03
 CCSD(T)
 CCSD(T)= -0.19782747945D+03

 The electronic state is 1-SG.
 Alpha  occ. eigenvalues --   -4.98330  -3.40342  -3.38126  -3.38126  -0.59141
 Alpha  occ. eigenvalues --   -0.54409  -0.54409  -0.52475  -0.52475  -0.32932
 Alpha virt. eigenvalues --    0.00653   0.02578   0.02578   0.02664   0.04788
 Alpha virt. eigenvalues --    0.07912   0.08463   0.08463   0.11835   0.11835
 Alpha virt. eigenvalues --    0.11968   0.12623   0.12623   0.14894   0.18825

 Mulliken charges and spin densities:
               1          2
     1  Cu   0.289437   0.000000
     2  H   -0.289437   0.000000
 Sum of Mulliken charges =  -0.00000   0.00000

 Dipole moment (field-independent basis, Debye):
    X=              0.0000    Y=              0.0000    Z=              3.1582  Tot=              3.1582
 Quadrupole moment (field-independent basis, Debye-Ang):
   XX=            -14.1277   YY=            -14.1277   ZZ=            -14.3365
   XY=              0.0000   XZ=              0.0000   YZ=              0.0000

 P ROCCSD(T)=(MaxCyc=150, Full)/Gen SCF=(maxcycle=400) Pseudo=Read Inte
 2-0=-197.9163347\MP4SDQ=-197.8615441\CCSD=-197.7856012\CCSD(T)=-197.82
 Normal termination of Gaussian 16 at Wed Apr  4 22:38:20 2018.
