 Gaussian 16, Revision A.03,
 Gaussian 16:  ES64L-G16RevA.03 25-Dec-2016

 ----------------------------------------------------------------------
 #P ROCCSD(T)=(MaxCyc=150, Full)/Gen SCF=(maxcycle=400) Pseudo=Read Int
 egral(NoXCTest) Pop=Regular MaxDisk=500GB Guess=Read IOp(5/15=2)
 ----------------------------------------------------------------------

 ---
 CuH
 ---
 Symbolic Z-matrix:
 Charge =  0 Multiplicity = 1

                         Standard orientation:
 ---------------------------------------------------------------------
 Center     Atomic      Atomic             Coordinates (Angstroms)
 Number     Number       Type             X           Y           Z
 ---------------------------------------------------------------------
      1         29           0        0.000000    0.000000    0.036667
      2          1           0        0.000000    0.000000   -1.063333
 ---------------------------------------------------------------------

 SCF Done:  E(ROHF) =  -196.705885565     A.U. after   10 cycles
 E2 =    -0.1185621381D+01 EUMP2 =    -0.19789150694553D+03
 CCSD(T)
 CCSD(T)= -0.19780494256D+03

 The electronic state is 1-SG.
 Alpha  occ. eigenvalues --   -4.98326  -3.40341  -3.38125  -3.38125  -0.59142
 Alpha  occ. eigenvalues --   -0.54405  -0.54405  -0.52473  -0.52473  -0.32932
 Alpha virt. eigenvalues --    0.00769   0.02667   0.02667   0.02936   0.05656
 Alpha virt. eigenvalues --    0.08827   0.08827   0.09202   0.13269   0.13269
 Alpha virt. eigenvalues --    0.13337   0.14058   0.14058   0.20015   0.23042

 Mulliken charges and spin densities:
               1          2
     1  Cu   0.273819   0.000000
     2  H   -0.273819   0.000000
 Sum of Mulliken charges =  -0.00000   0.00000

 Dipole moment (field-independent basis, Debye):
    X=              0.0000    Y=              0.0000    Z=              3.1597  Tot=              3.1597
 Quadrupole moment (field-independent basis, Debye-Ang):
   XX=            -14.1290   YY=            -14.1290   ZZ=            -14.3345
   XY=              0.0000   XZ=              0.0000   YZ=              0.0000

 P ROCCSD(T)=(MaxCyc=150, Full)/Gen SCF=(maxcycle=400) Pseudo=Read Inte
 -0=-197.8915069\MP4SDQ=-197.8402918\CCSD=-197.7638032\CCSD(T)=-197.804
 Normal termination of Gaussian 16 at Wed Apr  4 19:50:28 2018.
