 Gaussian 16, Revision A.03,
 Gaussian 16:  ES64L-G16RevA.03 25-Dec-2016

 ----------------------------------------------------------------------
 #P ROCCSD(T)=(MaxCyc=150, Full)/Gen SCF=(maxcycle=400) Pseudo=Read Int
 egral(NoXCTest) Pop=Regular MaxDisk=500GB Guess=Read IOp(5/15=2)
 ----------------------------------------------------------------------

 ---
 CuH
 ---
 Symbolic Z-matrix:
 Charge =  0 Multiplicity = 1

                         Standard orientation:
 ---------------------------------------------------------------------
 Center     Atomic      Atomic             Coordinates (Angstroms)
 Number     Number       Type             X           Y           Z
 ---------------------------------------------------------------------
      1         29           0        0.000000    0.000000    0.036667
      2          1           0        0.000000    0.000000   -1.063333
 ---------------------------------------------------------------------

 SCF Done:  E(ROHF) =  -196.702636246     A.U. after   13 cycles
 E2 =    -0.1134074441D+01 EUMP2 =    -0.19783671068658D+03
 CCSD(T)
 CCSD(T)= -0.19775170729D+03

 The electronic state is 1-SG.
 Alpha  occ. eigenvalues --   -4.98366  -3.40379  -3.38158  -3.38158  -0.59143
 Alpha  occ. eigenvalues --   -0.54399  -0.54399  -0.52465  -0.52465  -0.32932
 Alpha virt. eigenvalues --    0.00815   0.02945   0.02945   0.03233   0.06113
 Alpha virt. eigenvalues --    0.10110   0.10110   0.10110   0.17284   0.19095
 Alpha virt. eigenvalues --    0.19095   0.20603   0.20603   0.22201   0.26020

 Mulliken charges and spin densities:
               1          2
     1  Cu   0.291337   0.000000
     2  H   -0.291337   0.000000
 Sum of Mulliken charges =   0.00000   0.00000

 Dipole moment (field-independent basis, Debye):
    X=              0.0000    Y=              0.0000    Z=              3.1677  Tot=              3.1677
 Quadrupole moment (field-independent basis, Debye-Ang):
   XX=            -14.1374   YY=            -14.1374   ZZ=            -14.3214
   XY=              0.0000   XZ=              0.0000   YZ=              0.0000

 P ROCCSD(T)=(MaxCyc=150, Full)/Gen SCF=(maxcycle=400) Pseudo=Read Inte
 2-0=-197.8367107\MP4SDQ=-197.7899803\CCSD=-197.7125726\CCSD(T)=-197.75
 Normal termination of Gaussian 16 at Wed Apr  4 18:59:29 2018.
