 Gaussian 16, Revision A.03,
 Gaussian 16:  ES64L-G16RevA.03 25-Dec-2016

 ----------------------------------------------------------------------
 #P ROCCSD(T)=(maxcyc=150, Full)/Gen 5d 7f SCF=(maxcycles=300) Integral
 (NoXCTest) MaxDisk=500GB Pop=Regular Pseudo=Read Guess=Read
 ----------------------------------------------------------------------

 ---
 ScH
 ---
 Symbolic Z-matrix:
 Charge =  0 Multiplicity = 1

                         Standard orientation:
 ---------------------------------------------------------------------
 Center     Atomic      Atomic             Coordinates (Angstroms)
 Number     Number       Type             X           Y           Z
 ---------------------------------------------------------------------
      1         21           0        0.000000    0.000000    0.086364
      2          1           0        0.000000    0.000000   -1.813636
 ---------------------------------------------------------------------

 SCF Done:  E(ROHF) =  -46.6595788314     A.U. after    9 cycles
 E2 =    -0.4282438739D+00 EUMP2 =    -0.47087822705232D+02
 CCSD(T)
 CCSD(T)= -0.47130946718D+02

 The electronic state is 1-SG.
 Alpha  occ. eigenvalues --   -2.69796  -1.67458  -1.67458  -1.67319  -0.39217
 Alpha  occ. eigenvalues --   -0.23588
 Alpha virt. eigenvalues --    0.01038   0.01038   0.01332   0.01750   0.02584
 Alpha virt. eigenvalues --    0.02584   0.02668   0.02668   0.02713   0.03784
 Alpha virt. eigenvalues --    0.03935   0.03935   0.06631   0.06631   0.07036

 Mulliken charges and spin densities:
               1          2
     1  Sc   0.372095   0.000000
     2  H   -0.372095   0.000000
 Sum of Mulliken charges =  -0.00000   0.00000

 Dipole moment (field-independent basis, Debye):
    X=              0.0000    Y=              0.0000    Z=              1.8385  Tot=              1.8385
 Quadrupole moment (field-independent basis, Debye-Ang):
   XX=            -22.9725   YY=            -22.9725   ZZ=            -27.5487
   XY=              0.0000   XZ=              0.0000   YZ=              0.0000

 P ROCCSD(T)=(maxcyc=150, Full)/Gen 5d 7f SCF=(maxcycles=300) Integral(
 878227\MP4SDQ=-47.1105758\CCSD=-47.110832\CCSD(T)=-47.1309467\RMSD=2.4
 Normal termination of Gaussian 16 at Tue Feb 13 07:45:16 2018.
