 Gaussian 16, Revision A.03,
 Gaussian 16:  ES64L-G16RevA.03 25-Dec-2016

 ----------------------------------------------------------------------
 #P ROCCSD(T)=(maxcyc=150, Full, SaveAmplitudes, ReadAmplitudes)/Gen 5d
  7f SCF=(maxcycles=300) Integral(NoXCTest) MaxDisk=500GB Pop=Regular P
 seudo=Read Guess=Read
 ----------------------------------------------------------------------

 ---
 CrO
 ---
 Symbolic Z-matrix:
 Charge =  0 Multiplicity = 5

                         Standard orientation:
 ---------------------------------------------------------------------
 Center     Atomic      Atomic             Coordinates (Angstroms)
 Number     Number       Type             X           Y           Z
 ---------------------------------------------------------------------
      1         24           0        0.000000    0.000000    0.300000
      2          8           0        0.000000    0.000000   -0.900000
 ---------------------------------------------------------------------

 SCF Done:  E(ROHF) =  -101.771238329     A.U. after   22 cycles
 E2 =    -0.9336865502D+00 EUMP2 =    -0.10270492487899D+03
 CCSD(T)
 CCSD(T)= -0.10270779246D+03

 Unable to determine electronic state:  an orbital has unidentified symmetry.
 Alpha  occ. eigenvalues --   -3.75189  -2.48368  -2.44020  -2.40174  -1.25324
 Alpha  occ. eigenvalues --   -0.74660  -0.68408  -0.65044  -0.50476  -0.50373
 Alpha  occ. eigenvalues --   -0.30498  -0.26422
 Alpha virt. eigenvalues --    0.01436   0.02086   0.02563   0.02567   0.04902
 Alpha virt. eigenvalues --    0.05048   0.05466   0.05471   0.05512   0.05626
 Alpha virt. eigenvalues --    0.08692   0.08694   0.10251   0.13980   0.15049

 Mulliken charges and spin densities:
               1          2
     1  Cr   0.744940   3.830769
     2  O   -0.744940   0.169231
 Sum of Mulliken charges =  -0.00000   4.00000

 Dipole moment (field-independent basis, Debye):
    X=              0.0000    Y=              0.0000    Z=              0.3537  Tot=              0.3537
 Quadrupole moment (field-independent basis, Debye-Ang):
   XX=            -22.5720   YY=            -19.8118   ZZ=            -22.6805
   XY=              0.0000   XZ=              0.0000   YZ=              0.0000

 \\#P ROCCSD(T)=(maxcyc=150, Full, SaveAmplitudes, ReadAmplitudes)/Gen
 MP2-0=-102.7049249\CCSD=-102.6660949\CCSD(T)=-102.7077925\RMSD=6.945e-
 Normal termination of Gaussian 16 at Mon Mar 12 16:03:40 2018.
