 Gaussian 16, Revision A.03,
 Gaussian 16:  ES64L-G16RevA.03 25-Dec-2016

 ----------------------------------------------------------------------
 #P ROCCSD(T)=(maxcyc=150, Full, SaveAmplitudes, ReadAmplitudes)/Gen 5d
  7f SCF=(maxcycles=300, VShift=400) Integral(NoXCTest) MaxDisk=500GB P
 op=Full Pseudo=Read Guess=Read
 ----------------------------------------------------------------------

 ---
 ScH
 ---
 Symbolic Z-matrix:
 Charge =  0 Multiplicity = 1

                         Standard orientation:
 ---------------------------------------------------------------------
 Center     Atomic      Atomic             Coordinates (Angstroms)
 Number     Number       Type             X           Y           Z
 ---------------------------------------------------------------------
      1         21           0        0.000000    0.000000    0.072727
      2          1           0        0.000000    0.000000   -1.527273
 ---------------------------------------------------------------------

 SCF Done:  E(ROHF) =  -46.6693732023     A.U. after   20 cycles
 E2 =    -0.4245893150D+00 EUMP2 =    -0.47093962517334D+02
 CCSD(T)
 CCSD(T)= -0.47135707759D+02

 The electronic state is 1-SG.
 Alpha  occ. eigenvalues --   -2.66328  -1.65413  -1.64936  -1.64936  -0.43004
 Alpha  occ. eigenvalues --   -0.22553
 Alpha virt. eigenvalues --    0.01186   0.01186   0.01549   0.01907   0.02869
 Alpha virt. eigenvalues --    0.02869   0.02909   0.02909   0.02925   0.04203
 Alpha virt. eigenvalues --    0.04203   0.04384   0.07684   0.07684   0.07896

 Mulliken charges and spin densities:
               1          2
     1  Sc   0.278721   0.000000
     2  H   -0.278721   0.000000
 Sum of Mulliken charges =  -0.00000   0.00000

 Dipole moment (field-independent basis, Debye):
    X=              0.0000    Y=              0.0000    Z=              0.9656  Tot=              0.9656
 Quadrupole moment (field-independent basis, Debye-Ang):
   XX=            -23.2492   YY=            -23.2492   ZZ=            -25.3303
   XY=              0.0000   XZ=              0.0000   YZ=              0.0000

 P ROCCSD(T)=(maxcyc=150, Full, SaveAmplitudes, ReadAmplitudes)/Gen 5d
 =-46.6693732\PMP2-0=-47.0939625\CCSD=-47.1167435\CCSD(T)=-47.1357078\R
 Normal termination of Gaussian 16 at Thu Apr 19 08:09:55 2018.
