 Gaussian 16, Revision A.03,
 Gaussian 16:  ES64L-G16RevA.03 25-Dec-2016

 ----------------------------------------------------------------------
 #P ROCCSD(T)=(maxcyc=150, Full, SaveAmplitudes, ReadAmplitudes)/Gen 5d
  7f SCF=(maxcycles=300) Integral(NoXCTest) MaxDisk=500GB Pop=Regular P
 seudo=Read Guess=Read IOp(5/15=2)
 ----------------------------------------------------------------------

 ---
 ScO
 ---
 Symbolic Z-matrix:
 Charge =  0 Multiplicity = 2

                         Standard orientation:
 ---------------------------------------------------------------------
 Center     Atomic      Atomic             Coordinates (Angstroms)
 Number     Number       Type             X           Y           Z
 ---------------------------------------------------------------------
      1         21           0        0.000000    0.000000    0.303448
      2          8           0        0.000000    0.000000   -0.796552
 ---------------------------------------------------------------------

 SCF Done:  E(ROHF) =  -61.5361107236     A.U. after   18 cycles
 E2 =    -0.6454463225D+00 EUMP2 =    -0.62181557046066D+02
 CCSD(T)
 CCSD(T)= -0.62213105870D+02

 The electronic state is 2-SG.
 Alpha  occ. eigenvalues --   -2.71902  -1.86529  -1.53622  -1.53622  -1.03539
 Alpha  occ. eigenvalues --   -0.69177  -0.69177  -0.47015  -0.16652
 Alpha virt. eigenvalues --    0.00975   0.00975   0.01503   0.02980   0.03756
 Alpha virt. eigenvalues --    0.03756   0.03807   0.03807   0.03871   0.04937
 Alpha virt. eigenvalues --    0.04937   0.06780   0.11219   0.11219   0.11353

 Mulliken charges and spin densities:
               1          2
     1  Sc   0.917964   1.061372
     2  O   -0.917964  -0.061372
 Sum of Mulliken charges =  -0.00000   1.00000

 Dipole moment (field-independent basis, Debye):
    X=              0.0000    Y=              0.0000    Z=             -2.3885  Tot=              2.3885
 Quadrupole moment (field-independent basis, Debye-Ang):
   XX=            -24.2762   YY=            -24.2762   ZZ=            -28.3380
   XY=              0.0000   XZ=              0.0000   YZ=              0.0000

 \\#P ROCCSD(T)=(maxcyc=150, Full, SaveAmplitudes, ReadAmplitudes)/Gen
 \CCSD=-62.1877763\CCSD(T)=-62.2131059\RMSD=2.812e-09\PG=C*V [C*(O1Sc1)
 Normal termination of Gaussian 16 at Tue Feb 20 19:57:48 2018.
