 Gaussian 16, Revision A.03,
 Gaussian 16:  ES64L-G16RevA.03 25-Dec-2016

 ----------------------------------------------------------------------
 #P ROCCSD(T)=(MaxCyc=150, Full)/Gen SCF=(maxcycle=400) Pseudo=Read Int
 egral(NoXCTest) Pop=Regular MaxDisk=500GB
 ----------------------------------------------------------------------

 ---
 FeO
 ---
 Symbolic Z-matrix:
 Charge =  0 Multiplicity = 5

                         Standard orientation:
 ---------------------------------------------------------------------
 Center     Atomic      Atomic             Coordinates (Angstroms)
 Number     Number       Type             X           Y           Z
 ---------------------------------------------------------------------
      1         26           0        0.000000    0.000000    0.352941
      2          8           0        0.000000    0.000000   -1.147059
 ---------------------------------------------------------------------

 SCF Done:  E(ROHF) =  -138.824608592     A.U. after   32 cycles
 E2 =    -0.1064843633D+01 EUMP2 =    -0.13988945222439D+03
 CCSD(T)
 CCSD(T)= -0.13990267989D+03

 Unable to determine electronic state:  partially filled degenerate orbitals.
 Alpha  occ. eigenvalues --   -4.47040  -2.98956  -2.92062  -2.92062  -1.17969
 Alpha  occ. eigenvalues --   -0.68574  -0.68574  -0.63047  -0.61512  -0.58381
 Alpha  occ. eigenvalues --   -0.36638  -0.36638  -0.35083
 Alpha virt. eigenvalues --   -0.03006   0.01821   0.01821   0.02339   0.03561
 Alpha virt. eigenvalues --    0.06412   0.06412   0.06539   0.06549   0.06633
 Alpha virt. eigenvalues --    0.08145   0.08145   0.12324   0.14035   0.19485

 Mulliken charges and spin densities:
               1          2
     1  Fe   1.135773   3.796008
     2  O   -1.135773   0.203992
 Sum of Mulliken charges =  -0.00000   4.00000

 Dipole moment (field-independent basis, Debye):
    X=              0.0000    Y=              0.0000    Z=              7.6144  Tot=              7.6144
 Quadrupole moment (field-independent basis, Debye-Ang):
   XX=            -18.1876   YY=            -18.1876   ZZ=            -21.3519
   XY=              0.0000   XZ=              0.0000   YZ=              0.0000

 \\#P ROCCSD(T)=(MaxCyc=150, Full)/Gen SCF=(maxcycle=400) Pseudo=Read I
 05874\CCSD=-139.8537543\CCSD(T)=-139.9026799\RMSD=9.374e-09\PG=C*V [C*
 Normal termination of Gaussian 16 at Sun Mar 25 09:24:06 2018.
