 Gaussian 16, Revision A.03,
 Gaussian 16:  ES64L-G16RevA.03 25-Dec-2016

 ----------------------------------------------------------------------
 #P ROCCSD(T)=(MaxCyc=150, Full)/Gen SCF=(maxcycle=400) Pseudo=Read Int
 egral(NoXCTest) Pop=Regular MaxDisk=500GB
 ----------------------------------------------------------------------

 ---
 FeO
 ---
 Symbolic Z-matrix:
 Charge =  0 Multiplicity = 5

                         Standard orientation:
 ---------------------------------------------------------------------
 Center     Atomic      Atomic             Coordinates (Angstroms)
 Number     Number       Type             X           Y           Z
 ---------------------------------------------------------------------
      1         26           0        0.000000    0.000000    0.352941
      2          8           0        0.000000    0.000000   -1.147059
 ---------------------------------------------------------------------

 SCF Done:  E(ROHF) =  -138.821033502     A.U. after   35 cycles
 E2 =    -0.1017088086D+01 EUMP2 =    -0.13983812158741D+03
 CCSD(T)
 CCSD(T)= -0.13985390022D+03

 Unable to determine electronic state:  partially filled degenerate orbitals.
 Alpha  occ. eigenvalues --   -4.47050  -2.98983  -2.92079  -2.92079  -1.18031
 Alpha  occ. eigenvalues --   -0.68577  -0.68577  -0.63052  -0.61534  -0.58384
 Alpha  occ. eigenvalues --   -0.36632  -0.36632  -0.35097
 Alpha virt. eigenvalues --   -0.03011   0.02116   0.02116   0.02622   0.03968
 Alpha virt. eigenvalues --    0.07653   0.07653   0.09051   0.09751   0.09781
 Alpha virt. eigenvalues --    0.10781   0.10781   0.14371   0.15053   0.25672

 Mulliken charges and spin densities:
               1          2
     1  Fe   1.098296   3.788301
     2  O   -1.098296   0.211699
 Sum of Mulliken charges =  -0.00000   4.00000

 Dipole moment (field-independent basis, Debye):
    X=              0.0000    Y=              0.0000    Z=              7.6245  Tot=              7.6245
 Quadrupole moment (field-independent basis, Debye-Ang):
   XX=            -18.1883   YY=            -18.1883   ZZ=            -21.3729
   XY=              0.0000   XZ=              0.0000   YZ=              0.0000

 \\#P ROCCSD(T)=(MaxCyc=150, Full)/Gen SCF=(maxcycle=400) Pseudo=Read I
 45272\CCSD=-139.8072435\CCSD(T)=-139.8539002\RMSD=3.300e-09\PG=C*V [C*
 Normal termination of Gaussian 16 at Sun Mar 25 07:21:06 2018.
