 Gaussian 16, Revision A.03,
 Gaussian 16:  ES64L-G16RevA.03 25-Dec-2016

 ----------------------------------------------------------------------
 #P ROCCSD(T)=(maxcyc=150, Full, SaveAmplitudes, ReadAmplitudes)/Gen 5d
  7f SCF=(maxcycles=300) Integral(NoXCTest) MaxDisk=500GB Pop=Regular P
 seudo=Read Guess=Read
 ----------------------------------------------------------------------

 ---
 TiO
 ---
 Symbolic Z-matrix:
 Charge =  0 Multiplicity = 3

                         Standard orientation:
 ---------------------------------------------------------------------
 Center     Atomic      Atomic             Coordinates (Angstroms)
 Number     Number       Type             X           Y           Z
 ---------------------------------------------------------------------
      1         22           0        0.000000    0.000000    0.506667
      2          8           0        0.000000    0.000000   -1.393333
 ---------------------------------------------------------------------

 SCF Done:  E(ROHF) =  -73.4858718520     A.U. after   26 cycles
 E2 =    -0.7991597974D+00 EUMP2 =    -0.74285031649350D+02
 CCSD(T)
 CCSD(T)= -0.74319865793D+02

 Unable to determine electronic state:  an orbital has unidentified symmetry.
 Alpha  occ. eigenvalues --   -3.11387  -1.96887  -1.96887  -1.92182  -1.10599
 Alpha  occ. eigenvalues --   -0.52209  -0.41444  -0.37339  -0.37339  -0.29849
 Alpha virt. eigenvalues --   -0.01013  -0.01013   0.00065   0.01801   0.02840
 Alpha virt. eigenvalues --    0.02840   0.03208   0.03502   0.03670   0.04395
 Alpha virt. eigenvalues --    0.04395   0.04772   0.06487   0.09706   0.09826

 Mulliken charges and spin densities:
               1          2
     1  Ti   1.018339   1.978256
     2  O   -1.018339   0.021744
 Sum of Mulliken charges =  -0.00000   2.00000

 Dipole moment (field-independent basis, Debye):
    X=              0.0000    Y=              0.0000    Z=              6.9842  Tot=              6.9842
 Quadrupole moment (field-independent basis, Debye-Ang):
   XX=            -21.6558   YY=            -21.6558   ZZ=            -30.8566
   XY=              0.0000   XZ=              0.0000   YZ=              0.0000

 \\#P ROCCSD(T)=(maxcyc=150, Full, SaveAmplitudes, ReadAmplitudes)/Gen
 -0=-74.2850316\CCSD=-74.2606848\CCSD(T)=-74.3198658\RMSD=7.802e-09\PG=
 Normal termination of Gaussian 16 at Tue Mar 13 02:37:00 2018.
