 Gaussian 16, Revision A.03,
 Gaussian 16:  ES64L-G16RevA.03 25-Dec-2016

 ----------------------------------------------------------------------
 #P ROCCSD(T)=(MaxCyc=150, Full)/Gen SCF=(maxcycle=400) Pseudo=Read Int
 egral(NoXCTest) Pop=Regular MaxDisk=500GB Guess=Read IOp(5/15=2)
 ----------------------------------------------------------------------

 --
 Cu
 --
 Symbolic Z-matrix:
 Charge =  0 Multiplicity = 2

                         Standard orientation:
 ---------------------------------------------------------------------
 Center     Atomic      Atomic             Coordinates (Angstroms)
 Number     Number       Type             X           Y           Z
 ---------------------------------------------------------------------
      1         29           0        0.000000    0.000000    0.000000
 ---------------------------------------------------------------------

 SCF Done:  E(ROHF) =  -195.337355528     A.U. after   10 cycles
 E2 =    -0.1115376184D+01 EUMP2 =    -0.19645273171135D+03
 CCSD(T)
 CCSD(T)= -0.19636835780D+03

 The electronic state is 2-A1G.
 Alpha  occ. eigenvalues --   -5.21218  -3.38022  -3.38022  -3.38022  -0.48455
 Alpha  occ. eigenvalues --   -0.48455  -0.48455  -0.48455  -0.48455  -0.24473
 Alpha virt. eigenvalues --    0.02250   0.02250   0.02250   0.02716   0.07519
 Alpha virt. eigenvalues --    0.07519   0.07519   0.12338   0.12338   0.12338
 Alpha virt. eigenvalues --    0.12338   0.12338   0.13380   0.24361   0.24361

 Mulliken charges and spin densities:
               1          2
     1  Cu   0.000000   1.000000
 Sum of Mulliken charges =   0.00000   1.00000

 Dipole moment (field-independent basis, Debye):
    X=              0.0000    Y=              0.0000    Z=              0.0000  Tot=              0.0000
 Quadrupole moment (field-independent basis, Debye-Ang):
   XX=            -14.0629   YY=            -14.0629   ZZ=            -14.0629
   XY=             -0.0000   XZ=              0.0000   YZ=              0.0000

 1\1\GINC-C402-034\SP\ROCCSD(T)-Full\Gen\Cu1(2)\GWANG18\05-May-2018\0\\
 #P ROCCSD(T)=(MaxCyc=150, Full)/Gen SCF=(maxcycle=400) Pseudo=Read Int
 egral(NoXCTest) Pop=Regular MaxDisk=500GB Guess=Read IOp(5/15=2)\\Cu\\
 0,2\Cu,0,0.,0.,0.\\Version=ES64L-G16RevA.03\State=2-A1G\HF=-195.337355
 5\MP2=-196.4527317\MP3=-196.2584096\PUHF=-195.3373555\PMP2-0=-196.4527
 317\MP4SDQ=-196.3963879\CCSD=-196.332569\CCSD(T)=-196.3683578\RMSD=2.3
 92e-09\PG=OH [O(Cu1)]\\@

 Normal termination of Gaussian 16 at Sat May  5 22:28:12 2018.
