 Gaussian 16, Revision A.03,
 Gaussian 16:  ES64L-G16RevA.03 25-Dec-2016

 ----------------------------------------------------------------------
 #P ROHF/Gen SCF=(maxcycle=400) Pseudo=Read Integral(NoXCTest) Pop=Regu
 lar MaxDisk=500GB IOp(5/15=2)
 ----------------------------------------------------------------------

 --
 Cu
 --
 Symbolic Z-matrix:
 Charge =  0 Multiplicity = 2

                         Standard orientation:
 ---------------------------------------------------------------------
 Center     Atomic      Atomic             Coordinates (Angstroms)
 Number     Number       Type             X           Y           Z
 ---------------------------------------------------------------------
      1         29           0        0.000000    0.000000    0.000000
 ---------------------------------------------------------------------

 SCF Done:  E(ROHF) =  -195.976343228     A.U. after   15 cycles

 The electronic state is 2-A1G.
 Alpha  occ. eigenvalues --   -5.22633  -3.34596  -3.34596  -3.34596  -0.47996
 Alpha  occ. eigenvalues --   -0.47996  -0.47996  -0.47996  -0.47996  -0.07030
 Alpha virt. eigenvalues --    0.02826   0.02826   0.02826   0.03708   0.09996
 Alpha virt. eigenvalues --    0.09996   0.09996   0.19435   0.20249   0.20249
 Alpha virt. eigenvalues --    0.20249   0.20249   0.20249   0.33981   0.33981

 Mulliken charges and spin densities:
               1          2
     1  Cu  -0.000000   1.000000
 Sum of Mulliken charges =  -0.00000   1.00000

 Dipole moment (field-independent basis, Debye):
    X=              0.0000    Y=              0.0000    Z=              0.0000  Tot=              0.0000
 Quadrupole moment (field-independent basis, Debye-Ang):
   XX=            -14.0274   YY=            -14.0274   ZZ=            -14.0274
   XY=              0.0000   XZ=             -0.0000   YZ=             -0.0000

 Normal termination of Gaussian 16 at Mon Mar 26 15:13:22 2018.
