 Gaussian 16, Revision A.03,
 Gaussian 16:  ES64L-G16RevA.03 25-Dec-2016

 ----------------------------------------------------------------------
 #P ROCCSD(T)=(MaxCyc=150, Full)/Gen SCF=(maxcycle=400) Pseudo=Read Int
 egral(NoXCTest) Pop=Regular MaxDisk=500GB Guess=Read IOp(5/15=2)
 ----------------------------------------------------------------------

 --
 Cu
 --
 Symbolic Z-matrix:
 Charge =  0 Multiplicity = 2

                         Standard orientation:
 ---------------------------------------------------------------------
 Center     Atomic      Atomic             Coordinates (Angstroms)
 Number     Number       Type             X           Y           Z
 ---------------------------------------------------------------------
      1         29           0        0.000000    0.000000    0.000000
 ---------------------------------------------------------------------

 SCF Done:  E(ROHF) =  -195.335115769     A.U. after   11 cycles
 E2 =    -0.1039468641D+01 EUMP2 =    -0.19637458440995D+03
 CCSD(T)
 CCSD(T)= -0.19629290581D+03

 The electronic state is 2-A1G.
 Alpha  occ. eigenvalues --   -5.21235  -3.38049  -3.38049  -3.38049  -0.48457
 Alpha  occ. eigenvalues --   -0.48457  -0.48457  -0.48457  -0.48457  -0.24483
 Alpha virt. eigenvalues --    0.02479   0.02479   0.02479   0.03531   0.09007
 Alpha virt. eigenvalues --    0.09007   0.09007   0.18780   0.19896   0.19896
 Alpha virt. eigenvalues --    0.19896   0.19896   0.19896   0.33122   0.33122

 Mulliken charges and spin densities:
               1          2
     1  Cu  -0.000000   1.000000
 Sum of Mulliken charges =  -0.00000   1.00000

 Dipole moment (field-independent basis, Debye):
    X=              0.0000    Y=              0.0000    Z=              0.0000  Tot=              0.0000
 Quadrupole moment (field-independent basis, Debye-Ang):
   XX=            -14.0640   YY=            -14.0640   ZZ=            -14.0640
   XY=              0.0000   XZ=              0.0000   YZ=              0.0000

 1\1\GINC-C402-034\SP\ROCCSD(T)-Full\Gen\Cu1(2)\GWANG18\05-May-2018\0\\
 #P ROCCSD(T)=(MaxCyc=150, Full)/Gen SCF=(maxcycle=400) Pseudo=Read Int
 egral(NoXCTest) Pop=Regular MaxDisk=500GB Guess=Read IOp(5/15=2)\\Cu\\
 0,2\Cu,0,0.,0.,0.\\Version=ES64L-G16RevA.03\State=2-A1G\HF=-195.335115
 8\MP2=-196.3745844\MP3=-196.1840351\PUHF=-195.3351158\PMP2-0=-196.3745
 844\MP4SDQ=-196.3248362\CCSD=-196.2599163\CCSD(T)=-196.2929058\RMSD=4.
 761e-10\PG=OH [O(Cu1)]\\@

 Normal termination of Gaussian 16 at Sat May  5 20:56:32 2018.
