 Gaussian 16, Revision A.03,
 Gaussian 16:  ES64L-G16RevA.03 25-Dec-2016

 ----------------------------------------------------------------------
 #P ROCCSD(T)=(MaxCyc=150, FrzINGC)/Gen SCF=(maxcycle=400, vshift=200)
 Integral(DKHSO, NoXCTest) Pop=Regular MaxDisk=500GB Guess=Read IOp(5/1
 5=2)
 ----------------------------------------------------------------------

 ---
 ZnH
 ---
 Symbolic Z-matrix:
 Charge =  0 Multiplicity = 2

                         Standard orientation:
 ---------------------------------------------------------------------
 Center     Atomic      Atomic             Coordinates (Angstroms)
 Number     Number       Type             X           Y           Z
 ---------------------------------------------------------------------
      1         30           0        0.000000    0.000000    0.051613
      2          1           0        0.000000    0.000000   -1.548387
 ---------------------------------------------------------------------

 SCF Done:  E(ROHF) =  -1794.80511537     A.U. after   17 cycles
 E2 =    -0.1089419340D+01 EUMP2 =    -0.17958945347103D+04
 CCSD(T)
 CCSD(T)= -0.17958281687D+04

 The electronic state is 2-SG.
 Alpha  occ. eigenvalues -- -357.59425 -45.36127 -39.16432 -39.16432 -39.16320
 Alpha  occ. eigenvalues --   -5.83138  -3.91054  -3.91054  -3.90959  -0.79884
 Alpha  occ. eigenvalues --   -0.79884  -0.79823  -0.79400  -0.79400  -0.45680
 Alpha  occ. eigenvalues --   -0.27818
 Alpha virt. eigenvalues --    0.01946   0.01946   0.02782   0.03538   0.06706
 Alpha virt. eigenvalues --    0.06706   0.07836   0.14163   0.16894   0.17920
 Alpha virt. eigenvalues --    0.17920   0.18083   0.18083   0.21133   0.23440

 Mulliken charges and spin densities:
               1          2
     1  Zn   0.304494   0.922408
     2  H   -0.304494   0.077592
 Sum of Mulliken charges =  -0.00000   1.00000

 Dipole moment (field-independent basis, Debye):
    X=              0.0000    Y=              0.0000    Z=              0.7847  Tot=              0.7847
 Quadrupole moment (field-independent basis, Debye-Ang):
   XX=            -14.8066   YY=            -14.8066   ZZ=            -21.4113
   XY=             -0.0000   XZ=              0.0000   YZ=             -0.0000

 \#P ROCCSD(T)=(MaxCyc=150, FrzINGC)/Gen SCF=(maxcycle=400, vshift=200)
 59\CCSD(T)=-1795.8281687\RMSD=8.274e-09\PG=C*V [C*(H1Zn1)]\\@
 Normal termination of Gaussian 16 at Sat Apr 21 11:28:26 2018.
