 Gaussian 16, Revision A.03,
 Gaussian 16:  ES64L-G16RevA.03 25-Dec-2016

 ----------------------------------------------------------------------
 #P ROCCSD(T)=(MaxCyc=150, FrzINGC)/Gen SCF=(maxcycle=400, vshift=200)
 Integral(DKHSO, NoXCTest) Pop=Regular MaxDisk=500GB Guess=Read
 ----------------------------------------------------------------------

 ---
 ZnH
 ---
 Symbolic Z-matrix:
 Charge =  0 Multiplicity = 2

                         Standard orientation:
 ---------------------------------------------------------------------
 Center     Atomic      Atomic             Coordinates (Angstroms)
 Number     Number       Type             X           Y           Z
 ---------------------------------------------------------------------
      1         30           0        0.000000    0.000000    0.051613
      2          1           0        0.000000    0.000000   -1.548387
 ---------------------------------------------------------------------

 SCF Done:  E(ROHF) =  -1794.80545190     A.U. after   16 cycles
 E2 =    -0.1115483867D+01 EUMP2 =    -0.17959209357637D+04
 CCSD(T)
 CCSD(T)= -0.17958527088D+04

 The electronic state is 2-SG.
 Alpha  occ. eigenvalues -- -357.59433 -45.36127 -39.16431 -39.16431 -39.16320
 Alpha  occ. eigenvalues --   -5.83137  -3.91053  -3.91053  -3.90959  -0.79883
 Alpha  occ. eigenvalues --   -0.79883  -0.79822  -0.79400  -0.79400  -0.45681
 Alpha  occ. eigenvalues --   -0.27820
 Alpha virt. eigenvalues --    0.01886   0.01886   0.02354   0.03257   0.06286
 Alpha virt. eigenvalues --    0.06286   0.06806   0.11980   0.13478   0.15344
 Alpha virt. eigenvalues --    0.15344   0.15426   0.15426   0.18227   0.20976

 Mulliken charges and spin densities:
               1          2
     1  Zn   0.274158   0.920596
     2  H   -0.274158   0.079404
 Sum of Mulliken charges =  -0.00000   1.00000

 Dipole moment (field-independent basis, Debye):
    X=              0.0000    Y=              0.0000    Z=              0.7851  Tot=              0.7851
 Quadrupole moment (field-independent basis, Debye-Ang):
   XX=            -14.8058   YY=            -14.8058   ZZ=            -21.4093
   XY=             -0.0000   XZ=              0.0000   YZ=             -0.0000

 \#P ROCCSD(T)=(MaxCyc=150, FrzINGC)/Gen SCF=(maxcycle=400, vshift=200)
 PMP2-0=-1795.9209358\MP4SDQ=-1795.8597848\CCSD=-1795.8238058\CCSD(T)=-
 Normal termination of Gaussian 16 at Thu May  3 02:04:32 2018.
