 Gaussian 16, Revision A.03,
 Gaussian 16:  ES64L-G16RevA.03 25-Dec-2016

 ----------------------------------------------------------------------
 #P ROCCSD(T)=(maxcyc=150, Full, SaveAmplitudes, ReadAmplitudes)/Gen 5d
  7f SCF=(maxcycles=300) Integral(NoXCTest) MaxDisk=500GB Pop=Regular P
 seudo=Read Guess=Read IOp(5/15=2)
 ----------------------------------------------------------------------

 ---
 MnH
 ---
 Symbolic Z-matrix:
 Charge =  0 Multiplicity = 7

                         Standard orientation:
 ---------------------------------------------------------------------
 Center     Atomic      Atomic             Coordinates (Angstroms)
 Number     Number       Type             X           Y           Z
 ---------------------------------------------------------------------
      1         25           0        0.000000    0.000000    0.061538
      2          1           0        0.000000    0.000000   -1.538462
 ---------------------------------------------------------------------

 SCF Done:  E(ROHF) =  -104.066859041     A.U. after   24 cycles
 E2 =    -0.5713946426D+00 EUMP2 =    -0.10463825368345D+03
 CCSD(T)
 CCSD(T)= -0.10466014739D+03

 The electronic state is 7-SG.
 Alpha  occ. eigenvalues --   -4.23965  -2.79366  -2.79366  -2.79220  -0.64380
 Alpha  occ. eigenvalues --   -0.64155  -0.64155  -0.63497  -0.63497  -0.41408
 Alpha  occ. eigenvalues --   -0.25732
 Alpha virt. eigenvalues --    0.01295   0.01295   0.02298   0.03160   0.05772
 Alpha virt. eigenvalues --    0.05772   0.08385   0.08491   0.08491   0.08956
 Alpha virt. eigenvalues --    0.08956   0.09585   0.14051   0.20209   0.22728

 Mulliken charges and spin densities:
               1          2
     1  Mn   0.436930   5.958363
     2  H   -0.436930   0.041637
 Sum of Mulliken charges =  -0.00000   6.00000

 Dipole moment (field-independent basis, Debye):
    X=              0.0000    Y=              0.0000    Z=              0.9475  Tot=              0.9475
 Quadrupole moment (field-independent basis, Debye-Ang):
   XX=            -16.1311   YY=            -16.1311   ZZ=            -26.0070
   XY=              0.0000   XZ=              0.0000   YZ=              0.0000

 \\#P ROCCSD(T)=(maxcyc=150, Full, SaveAmplitudes, ReadAmplitudes)/Gen
 437566\CCSD=-104.6445398\CCSD(T)=-104.6601474\RMSD=6.235e-09\PG=C*V [C
 Normal termination of Gaussian 16 at Mon Feb 26 08:36:04 2018.
