 Gaussian 16, Revision A.03,
 Gaussian 16:  ES64L-G16RevA.03 25-Dec-2016

 ----------------------------------------------------------------------
 #P ROCCSD(T)=(MaxCyc=150, Full)/Gen SCF=(maxcycle=400) Pseudo=Read Int
 egral(NoXCTest) Pop=Regular MaxDisk=500GB Guess=Read IOp(5/15=2)
 ----------------------------------------------------------------------

 ---
 CuO
 ---
 Symbolic Z-matrix:
 Charge =  0 Multiplicity = 2

                         Standard orientation:
 ---------------------------------------------------------------------
 Center     Atomic      Atomic             Coordinates (Angstroms)
 Number     Number       Type             X           Y           Z
 ---------------------------------------------------------------------
      1         29           0        0.000000    0.000000    0.410811
      2          8           0        0.000000    0.000000   -1.489189
 ---------------------------------------------------------------------

 SCF Done:  E(ROHF) =  -211.692505463     A.U. after   20 cycles
 E2 =    -0.1280688974D+01 EUMP2 =    -0.21297319443707D+03
 CCSD(T)
 CCSD(T)= -0.21290802957D+03

 Unable to determine electronic state:  an orbital has unidentified symmetry.
 Alpha  occ. eigenvalues --   -5.26643  -3.38617  -3.38605  -3.38469  -1.21127
 Alpha  occ. eigenvalues --   -0.55111  -0.53151  -0.52693  -0.52150  -0.52150
 Alpha  occ. eigenvalues --   -0.48386  -0.41233  -0.40741
 Alpha virt. eigenvalues --   -0.01777   0.02705   0.02857   0.03777   0.04570
 Alpha virt. eigenvalues --    0.09983   0.10259   0.13418   0.19212   0.19221
 Alpha virt. eigenvalues --    0.19428   0.20127   0.21567   0.22642   0.25943

 Mulliken charges and spin densities:
               1          2
     1  Cu   0.798676   0.010538
     2  O   -0.798676   0.989462
 Sum of Mulliken charges =  -0.00000   1.00000

 Dipole moment (field-independent basis, Debye):
    X=              0.0000    Y=              0.0000    Z=              6.3877  Tot=              6.3877
 Quadrupole moment (field-independent basis, Debye-Ang):
   XX=            -15.4145   YY=            -16.9934   ZZ=            -21.7060
   XY=              0.0000   XZ=              0.0000   YZ=              0.0000

 \\#P ROCCSD(T)=(MaxCyc=150, Full)/Gen SCF=(maxcycle=400) Pseudo=Read I
 .9731944\MP4SDQ=-212.9352509\CCSD=-212.8641381\CCSD(T)=-212.9080296\RM
 Normal termination of Gaussian 16 at Mon Mar 26 10:30:04 2018.
