 Gaussian 16, Revision A.03,
 Gaussian 16:  ES64L-G16RevA.03 25-Dec-2016

 ----------------------------------------------------------------------
 #P ROCCSD(T)=(MaxCyc=150, Full)/Gen SCF=(maxcycle=400) Pseudo=Read Int
 egral(NoXCTest) Pop=Regular MaxDisk=500GB Guess=Read IOp(5/15=2)
 ----------------------------------------------------------------------

 ---
 CuO
 ---
 Symbolic Z-matrix:
 Charge =  0 Multiplicity = 2

                         Standard orientation:
 ---------------------------------------------------------------------
 Center     Atomic      Atomic             Coordinates (Angstroms)
 Number     Number       Type             X           Y           Z
 ---------------------------------------------------------------------
      1         29           0        0.000000    0.000000    0.410811
      2          8           0        0.000000    0.000000   -1.489189
 ---------------------------------------------------------------------

 SCF Done:  E(ROHF) =  -211.696951701     A.U. after   19 cycles
 E2 =    -0.1344533003D+01 EUMP2 =    -0.21304148470454D+03
 CCSD(T)
 CCSD(T)= -0.21297341915D+03

 Unable to determine electronic state:  an orbital has unidentified symmetry.
 Alpha  occ. eigenvalues --   -5.26619  -3.38584  -3.38575  -3.38441  -1.21084
 Alpha  occ. eigenvalues --   -0.55112  -0.53148  -0.52681  -0.52148  -0.52148
 Alpha  occ. eigenvalues --   -0.48387  -0.41236  -0.40733
 Alpha virt. eigenvalues --   -0.01773   0.02418   0.02543   0.03331   0.04338
 Alpha virt. eigenvalues --    0.08551   0.08766   0.11377   0.13146   0.13150
 Alpha virt. eigenvalues --    0.14544   0.14609   0.15081   0.18728   0.21259

 Mulliken charges and spin densities:
               1          2
     1  Cu   0.763203   0.010182
     2  O   -0.763203   0.989818
 Sum of Mulliken charges =  -0.00000   1.00000

 Dipole moment (field-independent basis, Debye):
    X=              0.0000    Y=              0.0000    Z=              6.3727  Tot=              6.3727
 Quadrupole moment (field-independent basis, Debye-Ang):
   XX=            -15.4064   YY=            -16.9675   ZZ=            -21.7157
   XY=              0.0000   XZ=              0.0000   YZ=              0.0000

 \\#P ROCCSD(T)=(MaxCyc=150, Full)/Gen SCF=(maxcycle=400) Pseudo=Read I
 .0414847\MP4SDQ=-212.9975427\CCSD=-212.9270161\CCSD(T)=-212.9734192\RM
 Normal termination of Gaussian 16 at Mon Mar 26 13:04:26 2018.
