 Gaussian 16, Revision A.03,
 Gaussian 16:  ES64L-G16RevA.03 25-Dec-2016

 ----------------------------------------------------------------------
 #P ROCCSD(T)=(maxcyc=150, Full, SaveAmplitudes, ReadAmplitudes)/Gen 5d
  7f SCF=(maxcycles=300, VShift=400) Integral(NoXCTest) MaxDisk=500GB P
 op=Full Pseudo=Read Guess=Read IOp(5/15=2)
 ----------------------------------------------------------------------

 ---
 CrO
 ---
 Symbolic Z-matrix:
 Charge =  0 Multiplicity = 5

                         Standard orientation:
 ---------------------------------------------------------------------
 Center     Atomic      Atomic             Coordinates (Angstroms)
 Number     Number       Type             X           Y           Z
 ---------------------------------------------------------------------
      1         24           0        0.000000    0.000000    0.350000
      2          8           0        0.000000    0.000000   -1.050000
 ---------------------------------------------------------------------

 SCF Done:  E(ROHF) =  -101.462364600     A.U. after   43 cycles
 E2 =    -0.8784417376D+00 EUMP2 =    -0.10234080633779D+03
 CCSD(T)
 CCSD(T)= -0.10235774304D+03

 Unable to determine electronic state:  an orbital has unidentified symmetry.
 Alpha  occ. eigenvalues --   -3.74538  -2.46596  -2.42384  -2.42025  -1.23650
 Alpha  occ. eigenvalues --   -0.65289  -0.56847  -0.53607  -0.53440  -0.52004
 Alpha  occ. eigenvalues --   -0.38446  -0.28557
 Alpha virt. eigenvalues --    0.01114   0.01849   0.02195   0.03072   0.04981
 Alpha virt. eigenvalues --    0.05929   0.06822   0.07678   0.07684   0.07973
 Alpha virt. eigenvalues --    0.08514   0.09188   0.12535   0.15946   0.18027

 Mulliken charges and spin densities:
               1          2
     1  Cr   0.963170   3.800907
     2  O   -0.963170   0.199093
 Sum of Mulliken charges =  -0.00000   4.00000

 Dipole moment (field-independent basis, Debye):
    X=              0.0000    Y=              0.0000    Z=              3.1310  Tot=              3.1310
 Quadrupole moment (field-independent basis, Debye-Ang):
   XX=            -21.0512   YY=            -19.7714   ZZ=            -24.1237
   XY=              0.0000   XZ=              0.0000   YZ=              0.0000

 \\#P ROCCSD(T)=(maxcyc=150, Full, SaveAmplitudes, ReadAmplitudes)/Gen
 62779\CCSD=-102.3130735\CCSD(T)=-102.357743\RMSD=9.004e-09\PG=C*V [C*(
 Normal termination of Gaussian 16 at Fri Apr  6 11:26:47 2018.
