 Gaussian 16, Revision A.03,
 Gaussian 16:  ES64L-G16RevA.03 25-Dec-2016

 ----------------------------------------------------------------------
 #P ROCCSD(T)=(MaxCyc=150, Full)/Gen SCF=(maxcycle=400, vshift=400) Pse
 udo=Read Integral(NoXCTest) Pop=Regular MaxDisk=500GB Guess=Read IOp(5
 /15=2)
 ----------------------------------------------------------------------

 ---
 CoH
 ---
 Symbolic Z-matrix:
 Charge =  0 Multiplicity = 3

                         Standard orientation:
 ---------------------------------------------------------------------
 Center     Atomic      Atomic             Coordinates (Angstroms)
 Number     Number       Type             X           Y           Z
 ---------------------------------------------------------------------
      1         27           0        0.000000    0.000000    0.039286
      2          1           0        0.000000    0.000000   -1.060714
 ---------------------------------------------------------------------

 SCF Done:  E(ROHF) =  -161.296008297     A.U. after   46 cycles
 E2 =    -0.1032388405D+01 EUMP2 =    -0.16232839670162D+03
 CCSD(T)
 CCSD(T)= -0.16341360271D+03

 Unable to determine electronic state:  partially filled degenerate orbitals.
 Alpha  occ. eigenvalues --   -5.36482  -5.36482  -5.33183  -4.42939  -0.61630
 Alpha  occ. eigenvalues --   -0.37740  -0.37740  -0.37629  -0.36803  -0.33940
 Alpha virt. eigenvalues --   -0.03107  -0.03107   0.01869   0.03186   0.03606
 Alpha virt. eigenvalues --    0.03606   0.06629   0.07366   0.07391   0.07582
 Alpha virt. eigenvalues --    0.07582   0.07661   0.13001   0.14139   0.15442

 Mulliken charges and spin densities:
               1          2
     1  Co   0.550508   1.931913
     2  H   -0.550508   0.068087
 Sum of Mulliken charges =  -0.00000   2.00000

 Dipole moment (field-independent basis, Debye):
    X=              0.0000    Y=              0.0000    Z=             -0.2267  Tot=              0.2267
 Quadrupole moment (field-independent basis, Debye-Ang):
   XX=            -14.8019   YY=            -14.8019   ZZ=            -18.9524
   XY=              0.0000   XZ=              0.0000   YZ=              0.0000

 \\#P ROCCSD(T)=(MaxCyc=150, Full)/Gen SCF=(maxcycle=400, vshift=400) P
 \PMP2-0=-162.3283967\MP4SDQ=-162.2846567\CCSD=-162.4576942\CCSD(T)=-16
 Normal termination of Gaussian 16 at Mon Apr 23 02:37:47 2018.
