 Gaussian 16, Revision A.03,
 Gaussian 16:  ES64L-G16RevA.03 25-Dec-2016

 ----------------------------------------------------------------------
 #P ROCCSD(T)=(maxcyc=150, Full, SaveAmplitudes, ReadAmplitudes)/Gen 5d
  7f SCF=(maxcycles=300, VShift=400) Integral(NoXCTest) MaxDisk=500GB P
 op=Full Pseudo=Read Guess=Read IOp(5/15=2)
 ----------------------------------------------------------------------

 ---
 MnH
 ---
 Symbolic Z-matrix:
 Charge =  0 Multiplicity = 7

                         Standard orientation:
 ---------------------------------------------------------------------
 Center     Atomic      Atomic             Coordinates (Angstroms)
 Number     Number       Type             X           Y           Z
 ---------------------------------------------------------------------
      1         25           0        0.000000    0.000000    0.076923
      2          1           0        0.000000    0.000000   -1.923077
 ---------------------------------------------------------------------

 SCF Done:  E(ROHF) =  -103.789277346     A.U. after   34 cycles
 E2 =    -0.5683393800D+00 EUMP2 =    -0.10435761672606D+03
 CCSD(T)
 CCSD(T)= -0.10438183754D+03

 The electronic state is 7-SG.
 Alpha  occ. eigenvalues --   -4.16051  -2.78331  -2.78331  -2.78064  -0.65934
 Alpha  occ. eigenvalues --   -0.65934  -0.65260  -0.65260  -0.65217  -0.38722
 Alpha  occ. eigenvalues --   -0.27003
 Alpha virt. eigenvalues --    0.01013   0.01013   0.02294   0.03136   0.05512
 Alpha virt. eigenvalues --    0.05512   0.07959   0.08376   0.08376   0.08875
 Alpha virt. eigenvalues --    0.08875   0.10349   0.13312   0.18150   0.22371

 Mulliken charges and spin densities:
               1          2
     1  Mn   0.430828   5.954382
     2  H   -0.430828   0.045618
 Sum of Mulliken charges =  -0.00000   6.00000

 Dipole moment (field-independent basis, Debye):
    X=              0.0000    Y=              0.0000    Z=              2.4242  Tot=              2.4242
 Quadrupole moment (field-independent basis, Debye-Ang):
   XX=            -16.4744   YY=            -16.4744   ZZ=            -28.0484
   XY=              0.0000   XZ=              0.0000   YZ=              0.0000

 \\#P ROCCSD(T)=(maxcyc=150, Full, SaveAmplitudes, ReadAmplitudes)/Gen
 SDQ=-104.3650017\CCSD=-104.3662559\CCSD(T)=-104.3818375\RMSD=7.485e-09
 Normal termination of Gaussian 16 at Thu Apr 19 10:28:35 2018.
