 Gaussian 16, Revision A.03,
 Gaussian 16:  ES64L-G16RevA.03 25-Dec-2016

 ----------------------------------------------------------------------
 #P ROCCSD(T)=(MaxCyc=150, Full)/Gen SCF=(maxcycle=400) Integral(DKHSO,
  NoXCTest) Pop=Regular MaxDisk=500GB Guess=Read IOp(5/15=2)
 ----------------------------------------------------------------------

 ---
 NiO
 ---
 Symbolic Z-matrix:
 Charge =  0 Multiplicity = 3

                         Standard orientation:
 ---------------------------------------------------------------------
 Center     Atomic      Atomic             Coordinates (Angstroms)
 Number     Number       Type             X           Y           Z
 ---------------------------------------------------------------------
      1         28           0        0.000000    0.000000    0.355556
      2          8           0        0.000000    0.000000   -1.244444
 ---------------------------------------------------------------------

 SCF Done:  E(ROHF) =  -1593.90974312     A.U. after    1 cycles
 E2 =    -0.1646497444D+01 EUMP2 =    -0.15955562405605D+04
 CCSD(T)
 CCSD(T)= -0.15955579810D+04

 The electronic state is 3-SG.
 Alpha  occ. eigenvalues -- -308.81630 -38.68445 -33.16449 -33.12994 -33.12994
 Alpha  occ. eigenvalues --  -20.48396  -5.11918  -3.49308  -3.41136  -3.41136
 Alpha  occ. eigenvalues --   -1.16057  -0.79638  -0.79638  -0.72738  -0.70407
 Alpha  occ. eigenvalues --   -0.70407  -0.38374  -0.38374  -0.37532
 Alpha virt. eigenvalues --   -0.05101   0.02269   0.02269   0.02280   0.04305
 Alpha virt. eigenvalues --    0.08158   0.08158   0.10626   0.12185   0.12185
 Alpha virt. eigenvalues --    0.13246   0.13246   0.15544   0.16172   0.26359

 Mulliken charges and spin densities:
               1          2
     1  Ni   1.119336   1.887151
     2  O   -1.119336   0.112849
 Sum of Mulliken charges =  -0.00000   2.00000

 Dipole moment (field-independent basis, Debye):
    X=              0.0000    Y=              0.0000    Z=              7.9537  Tot=              7.9537
 Quadrupole moment (field-independent basis, Debye-Ang):
   XX=            -18.6690   YY=            -18.6690   ZZ=            -21.3206
   XY=              0.0000   XZ=              0.0000   YZ=              0.0000

 \\#P ROCCSD(T)=(MaxCyc=150, Full)/Gen SCF=(maxcycle=400) Integral(DKHS
 MP2-0=-1595.5562406\MP4SDQ=-1595.5130567\CCSD=-1595.4956839\CCSD(T)=-1
 Normal termination of Gaussian 16 at Fri Mar 16 08:13:49 2018.
