 Gaussian 16, Revision A.03,
 Gaussian 16:  ES64L-G16RevA.03 25-Dec-2016

 ----------------------------------------------------------------------
 #P ROCCSD(T)=(MaxCyc=150, Full)/Gen SCF=(maxcycle=400) Integral(DKHSO,
  NoXCTest) Pop=Regular MaxDisk=500GB Guess=Read IOp(5/15=2)
 ----------------------------------------------------------------------

 ---
 NiO
 ---
 Symbolic Z-matrix:
 Charge =  0 Multiplicity = 3

                         Standard orientation:
 ---------------------------------------------------------------------
 Center     Atomic      Atomic             Coordinates (Angstroms)
 Number     Number       Type             X           Y           Z
 ---------------------------------------------------------------------
      1         28           0        0.000000    0.000000    0.355556
      2          8           0        0.000000    0.000000   -1.244444
 ---------------------------------------------------------------------

 SCF Done:  E(ROHF) =  -1593.91617905     A.U. after   18 cycles
 E2 =    -0.1724492227D+01 EUMP2 =    -0.15956406712785D+04
 CCSD(T)
 CCSD(T)= -0.15956403305D+04

 The electronic state is 3-SG.
 Alpha  occ. eigenvalues -- -308.81620 -38.68419 -33.16416 -33.12966 -33.12966
 Alpha  occ. eigenvalues --  -20.48235  -5.11899  -3.49283  -3.41121  -3.41121
 Alpha  occ. eigenvalues --   -1.15985  -0.79637  -0.79637  -0.72732  -0.70412
 Alpha  occ. eigenvalues --   -0.70412  -0.38380  -0.38380  -0.37522
 Alpha virt. eigenvalues --   -0.05091   0.01895   0.01895   0.01996   0.03886
 Alpha virt. eigenvalues --    0.06940   0.06940   0.07582   0.08021   0.08021
 Alpha virt. eigenvalues --    0.09209   0.09209   0.12886   0.15000   0.22021

 Mulliken charges and spin densities:
               1          2
     1  Ni   0.996891   1.888852
     2  O   -0.996891   0.111148
 Sum of Mulliken charges =  -0.00000   2.00000

 Dipole moment (field-independent basis, Debye):
    X=              0.0000    Y=              0.0000    Z=              7.9408  Tot=              7.9408
 Quadrupole moment (field-independent basis, Debye-Ang):
   XX=            -18.6589   YY=            -18.6589   ZZ=            -21.3060
   XY=              0.0000   XZ=              0.0000   YZ=              0.0000

 \\#P ROCCSD(T)=(MaxCyc=150, Full)/Gen SCF=(maxcycle=400) Integral(DKHS
 MP2-0=-1595.6406713\MP4SDQ=-1595.5915746\CCSD=-1595.5752712\CCSD(T)=-1
 Normal termination of Gaussian 16 at Fri Mar 16 10:08:56 2018.
