 Gaussian 16, Revision A.03,
 Gaussian 16:  ES64L-G16RevA.03 25-Dec-2016

 ----------------------------------------------------------------------
 #P ROCCSD(T)=(maxcyc=150, Full)/Gen 5d 7f SCF=(maxcycles=300) Integral
 (NoXCTest) MaxDisk=500GB Pop=Regular Pseudo=Read
 ----------------------------------------------------------------------

 ---
 CrH
 ---
 Symbolic Z-matrix:
 Charge =  0 Multiplicity = 6

                         Standard orientation:
 ---------------------------------------------------------------------
 Center     Atomic      Atomic             Coordinates (Angstroms)
 Number     Number       Type             X           Y           Z
 ---------------------------------------------------------------------
      1         24           0        0.000000    0.000000    0.056000
      2          1           0        0.000000    0.000000   -1.344000
 ---------------------------------------------------------------------

 SCF Done:  E(ROHF) =  -86.6661068002     A.U. after   30 cycles
 E2 =    -0.5577037409D+00 EUMP2 =    -0.87223810541076D+02
 CCSD(T)
 CCSD(T)= -0.87258598279D+02

 The electronic state is 6-SG.
 Alpha  occ. eigenvalues --   -3.67290  -2.42701  -2.42701  -2.39464  -0.49423
 Alpha  occ. eigenvalues --   -0.49423  -0.46599  -0.46599  -0.43699  -0.25461
 Alpha virt. eigenvalues --    0.01591   0.01591   0.02096   0.02396   0.05953
 Alpha virt. eigenvalues --    0.05953   0.06015   0.07776   0.07776   0.08109
 Alpha virt. eigenvalues --    0.08109   0.08359   0.10110   0.19004   0.21752

 Mulliken charges and spin densities:
               1          2
     1  Cr   0.633317   5.005076
     2  H   -0.633317  -0.005076
 Sum of Mulliken charges =   0.00000   5.00000

 Dipole moment (field-independent basis, Debye):
    X=              0.0000    Y=              0.0000    Z=              1.9689  Tot=              1.9689
 Quadrupole moment (field-independent basis, Debye-Ang):
   XX=            -16.8436   YY=            -16.8436   ZZ=            -20.8262
   XY=              0.0000   XZ=              0.0000   YZ=              0.0000

 \\#P ROCCSD(T)=(maxcyc=150, Full)/Gen 5d 7f SCF=(maxcycles=300) Integr
 P4SDQ=-87.2324848\CCSD=-87.2397347\CCSD(T)=-87.2585983\RMSD=6.943e-09\
 Normal termination of Gaussian 16 at Tue Feb 13 00:15:41 2018.
