 Gaussian 16, Revision A.03,
 Gaussian 16:  ES64L-G16RevA.03 25-Dec-2016

 ----------------------------------------------------------------------
 #P ROCCSD(T)=(maxcyc=150, Full, SaveAmplitudes, ReadAmplitudes)/Gen 5d
  7f SCF=(maxcycles=300) Integral(NoXCTest) MaxDisk=500GB Pop=Regular P
 seudo=Read Guess=Read
 ----------------------------------------------------------------------

 ---
 ScO
 ---
 Symbolic Z-matrix:
 Charge =  0 Multiplicity = 2

                         Standard orientation:
 ---------------------------------------------------------------------
 Center     Atomic      Atomic             Coordinates (Angstroms)
 Number     Number       Type             X           Y           Z
 ---------------------------------------------------------------------
      1         21           0        0.000000    0.000000    0.413793
      2          8           0        0.000000    0.000000   -1.086207
 ---------------------------------------------------------------------

 SCF Done:  E(ROHF) =  -61.9475287555     A.U. after   17 cycles
 E2 =    -0.7084024672D+00 EUMP2 =    -0.62655931222756D+02
 CCSD(T)
 CCSD(T)= -0.62681002163D+02

 The electronic state is 2-SG.
 Alpha  occ. eigenvalues --   -2.61151  -1.68076  -1.57532  -1.57532  -1.11488
 Alpha  occ. eigenvalues --   -0.47967  -0.47967  -0.45054  -0.22553
 Alpha virt. eigenvalues --    0.00588   0.00588   0.01779   0.02095   0.02764
 Alpha virt. eigenvalues --    0.02764   0.02992   0.02992   0.03108   0.03657
 Alpha virt. eigenvalues --    0.03657   0.05729   0.07634   0.07634   0.09254

 Mulliken charges and spin densities:
               1          2
     1  Sc   1.199474   0.995204
     2  O   -1.199474   0.004796
 Sum of Mulliken charges =  -0.00000   1.00000

 Dipole moment (field-independent basis, Debye):
    X=              0.0000    Y=              0.0000    Z=              2.7464  Tot=              2.7464
 Quadrupole moment (field-independent basis, Debye-Ang):
   XX=            -21.9931   YY=            -21.9931   ZZ=            -30.9657
   XY=              0.0000   XZ=              0.0000   YZ=              0.0000

 \\#P ROCCSD(T)=(maxcyc=150, Full, SaveAmplitudes, ReadAmplitudes)/Gen
 475288\PMP2-0=-62.6559312\CCSD=-62.6438375\CCSD(T)=-62.6810022\RMSD=7.
 Normal termination of Gaussian 16 at Wed Mar  7 12:58:25 2018.
