 Gaussian 16, Revision A.03,
 Gaussian 16:  ES64L-G16RevA.03 25-Dec-2016

 ----------------------------------------------------------------------
 #P ROCCSD(T)=(maxcyc=150, Full, SaveAmplitudes, ReadAmplitudes)/Gen 5d
  7f SCF=(maxcycles=300) Integral(NoXCTest) MaxDisk=500GB Pop=Regular P
 seudo=Read Guess=Read
 ----------------------------------------------------------------------

 ---
 MnH
 ---
 Symbolic Z-matrix:
 Charge =  0 Multiplicity = 7

                         Standard orientation:
 ---------------------------------------------------------------------
 Center     Atomic      Atomic             Coordinates (Angstroms)
 Number     Number       Type             X           Y           Z
 ---------------------------------------------------------------------
      1         25           0        0.000000    0.000000    0.061538
      2          1           0        0.000000    0.000000   -1.538462
 ---------------------------------------------------------------------

 SCF Done:  E(ROHF) =  -104.247155629     A.U. after   20 cycles
 E2 =    -0.6161378247D+00 EUMP2 =    -0.10486329345351D+03
 CCSD(T)
 CCSD(T)= -0.10488516285D+03

 The electronic state is 7-SG.
 Alpha  occ. eigenvalues --   -4.09503  -2.75663  -2.75663  -2.75661  -0.63962
 Alpha  occ. eigenvalues --   -0.63731  -0.63731  -0.63073  -0.63073  -0.41386
 Alpha  occ. eigenvalues --   -0.25925
 Alpha virt. eigenvalues --    0.01211   0.01211   0.02114   0.02964   0.05050
 Alpha virt. eigenvalues --    0.05050   0.05669   0.05819   0.05819   0.06194
 Alpha virt. eigenvalues --    0.06194   0.08870   0.13629   0.14281   0.18009

 Mulliken charges and spin densities:
               1          2
     1  Mn   0.376919   5.949133
     2  H   -0.376919   0.050867
 Sum of Mulliken charges =  -0.00000   6.00000

 Dipole moment (field-independent basis, Debye):
    X=              0.0000    Y=              0.0000    Z=              0.9429  Tot=              0.9429
 Quadrupole moment (field-independent basis, Debye-Ang):
   XX=            -15.9803   YY=            -15.9803   ZZ=            -25.7942
   XY=              0.0000   XZ=              0.0000   YZ=              0.0000

 \\#P ROCCSD(T)=(maxcyc=150, Full, SaveAmplitudes, ReadAmplitudes)/Gen
 4.2471556\PMP2-0=-104.8632935\CCSD=-104.867943\CCSD(T)=-104.8851629\RM
 Normal termination of Gaussian 16 at Mon Feb 26 09:06:18 2018.
