 Gaussian 16, Revision A.03,
 Gaussian 16:  ES64L-G16RevA.03 25-Dec-2016

 ----------------------------------------------------------------------
 #P ROCCSD(T)=(maxcyc=150, Full, SaveAmplitudes, ReadAmplitudes)/Gen 5d
  7f SCF=(maxcycles=300) Integral(NoXCTest) MaxDisk=500GB Pop=Regular P
 seudo=Read Guess=Read
 ----------------------------------------------------------------------

 ---
 ScO
 ---
 Symbolic Z-matrix:
 Charge =  0 Multiplicity = 2

                         Standard orientation:
 ---------------------------------------------------------------------
 Center     Atomic      Atomic             Coordinates (Angstroms)
 Number     Number       Type             X           Y           Z
 ---------------------------------------------------------------------
      1         21           0        0.000000    0.000000    0.413793
      2          8           0        0.000000    0.000000   -1.086207
 ---------------------------------------------------------------------

 SCF Done:  E(ROHF) =  -62.0646207837     A.U. after   17 cycles
 E2 =    -0.7117142256D+00 EUMP2 =    -0.62776335009358D+02
 CCSD(T)
 CCSD(T)= -0.62800133522D+02

 The electronic state is 2-SG.
 Alpha  occ. eigenvalues --   -2.64236  -1.68245  -1.58036  -1.58036  -1.10584
 Alpha  occ. eigenvalues --   -0.47752  -0.47752  -0.44903  -0.22682
 Alpha virt. eigenvalues --    0.00597   0.00597   0.01754   0.02103   0.02765
 Alpha virt. eigenvalues --    0.02765   0.02995   0.02995   0.03116   0.03661
 Alpha virt. eigenvalues --    0.03661   0.05724   0.07649   0.07649   0.09262

 Mulliken charges and spin densities:
               1          2
     1  Sc   1.208111   0.994631
     2  O   -1.208111   0.005369
 Sum of Mulliken charges =  -0.00000   1.00000

 Dipole moment (field-independent basis, Debye):
    X=              0.0000    Y=              0.0000    Z=              2.8287  Tot=              2.8287
 Quadrupole moment (field-independent basis, Debye-Ang):
   XX=            -21.9262   YY=            -21.9262   ZZ=            -30.7982
   XY=              0.0000   XZ=              0.0000   YZ=              0.0000

 \\#P ROCCSD(T)=(maxcyc=150, Full, SaveAmplitudes, ReadAmplitudes)/Gen
 46208\PMP2-0=-62.776335\CCSD=-62.7628421\CCSD(T)=-62.8001335\RMSD=5.58
 Normal termination of Gaussian 16 at Wed Feb 21 02:25:47 2018.
