 Gaussian 16, Revision A.03,
 Gaussian 16:  ES64L-G16RevA.03 25-Dec-2016

 ----------------------------------------------------------------------
 #P ROCCSD(T)=(maxcyc=150, Full)/Gen 5d 7f SCF=(maxcycles=300) Integral
 (NoXCTest) MaxDisk=500GB Pop=Regular Pseudo=Read IOp(5/15=2) Guess=Rea
 d
 ----------------------------------------------------------------------

 ---
 ScH
 ---
 Symbolic Z-matrix:
 Charge =  0 Multiplicity = 1

                         Standard orientation:
 ---------------------------------------------------------------------
 Center     Atomic      Atomic             Coordinates (Angstroms)
 Number     Number       Type             X           Y           Z
 ---------------------------------------------------------------------
      1         21           0        0.000000    0.000000    0.063636
      2          1           0        0.000000    0.000000   -1.336364
 ---------------------------------------------------------------------

 SCF Done:  E(ROHF) =  -46.7496377023     A.U. after   12 cycles
 E2 =    -0.4178834984D+00 EUMP2 =    -0.47167521200712D+02
 CCSD(T)
 CCSD(T)= -0.47208974410D+02

 The electronic state is 1-SG.
 Alpha  occ. eigenvalues --   -2.70671  -1.63076  -1.61341  -1.61341  -0.45270
 Alpha  occ. eigenvalues --   -0.21967
 Alpha virt. eigenvalues --    0.01308   0.01308   0.01631   0.02171   0.03495
 Alpha virt. eigenvalues --    0.03913   0.03913   0.03917   0.03917   0.04794
 Alpha virt. eigenvalues --    0.04794   0.05032   0.09276   0.09893   0.09893

 Mulliken charges and spin densities:
               1          2
     1  Sc   0.463826   0.000000
     2  H   -0.463826   0.000000
 Sum of Mulliken charges =  -0.00000   0.00000

 Dipole moment (field-independent basis, Debye):
    X=              0.0000    Y=              0.0000    Z=              0.6209  Tot=              0.6209
 Quadrupole moment (field-independent basis, Debye-Ang):
   XX=            -23.4595   YY=            -23.4595   ZZ=            -23.9438
   XY=              0.0000   XZ=              0.0000   YZ=              0.0000

 P ROCCSD(T)=(maxcyc=150, Full)/Gen 5d 7f SCF=(maxcycles=300) Integral(
 PMP2-0=-47.1675212\MP4SDQ=-47.1916752\CCSD=-47.1911436\CCSD(T)=-47.208
 Normal termination of Gaussian 16 at Tue Feb 13 22:04:01 2018.
