 Gaussian 16, Revision A.03,
 Gaussian 16:  ES64L-G16RevA.03 25-Dec-2016

 ----------------------------------------------------------------------
 #P ROCCSD(T)=(MaxCyc=150, Window=(7,0))/Gen SCF=(maxcycle=400) Integra
 l(DKHSO, NoXCTest) Pop=Regular MaxDisk=500GB Guess=Read IOp(5/15=2)
 ----------------------------------------------------------------------

 ---
 CuO
 ---
 Symbolic Z-matrix:
 Charge =  0 Multiplicity = 2

                         Standard orientation:
 ---------------------------------------------------------------------
 Center     Atomic      Atomic             Coordinates (Angstroms)
 Number     Number       Type             X           Y           Z
 ---------------------------------------------------------------------
      1         29           0        0.000000    0.000000    0.389189
      2          8           0        0.000000    0.000000   -1.410811
 ---------------------------------------------------------------------

 SCF Done:  E(ROHF) =  -1728.04675546     A.U. after   16 cycles
 E2 =    -0.1271082279D+01 EUMP2 =    -0.17293178377369D+04
 CCSD(T)
 CCSD(T)= -0.17292351389D+04

 Unable to determine electronic state:  an orbital has unidentified symmetry.
 Alpha  occ. eigenvalues -- -332.52343 -41.69730 -35.83917 -35.83806 -35.83505
 Alpha  occ. eigenvalues --  -20.52757  -5.19437  -3.40310  -3.40067  -3.39872
 Alpha  occ. eigenvalues --   -1.20940  -0.56438  -0.53798  -0.53337  -0.51904
 Alpha  occ. eigenvalues --   -0.51903  -0.48052  -0.41585  -0.40654
 Alpha virt. eigenvalues --   -0.01432   0.02795   0.02951   0.03929   0.04615
 Alpha virt. eigenvalues --    0.10233   0.10542   0.13570   0.19372   0.19414
 Alpha virt. eigenvalues --    0.19474   0.20510   0.21609   0.22688   0.25996

 Mulliken charges and spin densities:
               1          2
     1  Cu   0.812509   0.014216
     2  O   -0.812509   0.985784
 Sum of Mulliken charges =  -0.00000   1.00000

 Dipole moment (field-independent basis, Debye):
    X=              0.0000    Y=              0.0000    Z=              5.9863  Tot=              5.9863
 Quadrupole moment (field-independent basis, Debye-Ang):
   XX=            -17.3582   YY=            -15.7943   ZZ=            -21.1703
   XY=              0.0000   XZ=              0.0000   YZ=              0.0000

 1\1\GINC-C501-134\SP\ROCCSD(T)-RW\Gen\Cu1O1(2)\GWANG18\26-Mar-2018\0\\
 #P ROCCSD(T)=(MaxCyc=150, Window=(7,0))/Gen SCF=(maxcycle=400) Integra
 l(DKHSO, NoXCTest) Pop=Regular MaxDisk=500GB Guess=Read IOp(5/15=2)\\C
 uO\\0,2\Cu,0,0.,0.,0.\O,0,0.,0.,1.8\\Version=ES64L-G16RevA.03\HF=-1728
 .0467555\MP2=-1729.3178377\MP3=-1729.093758\PUHF=-1728.0467555\PMP2-0=
 -1729.3178377\MP4SDQ=-1729.2733194\CCSD=-1729.1908665\CCSD(T)=-1729.23
 51389\RMSD=7.086e-09\PG=C*V [C*(O1Cu1)]\\@

 Normal termination of Gaussian 16 at Mon Mar 26 04:46:16 2018.
