 Gaussian 16, Revision A.03,
 Gaussian 16:  ES64L-G16RevA.03 25-Dec-2016

 ----------------------------------------------------------------------
 #P ROCCSD(T)=(MaxCyc=150, Full)/Gen SCF=(maxcycle=400) Pseudo=Read Int
 egral(NoXCTest) Pop=Regular MaxDisk=500GB Guess=Read IOp(5/15=2)
 ----------------------------------------------------------------------

 ---
 CuH
 ---
 Symbolic Z-matrix:
 Charge =  0 Multiplicity = 1

                         Standard orientation:
 ---------------------------------------------------------------------
 Center     Atomic      Atomic             Coordinates (Angstroms)
 Number     Number       Type             X           Y           Z
 ---------------------------------------------------------------------
      1         29           0        0.000000    0.000000    0.040000
      2          1           0        0.000000    0.000000   -1.160000
 ---------------------------------------------------------------------

 SCF Done:  E(ROHF) =  -196.692599086     A.U. after   13 cycles
 E2 =    -0.1099857827D+01 EUMP2 =    -0.19779245691273D+03
 CCSD(T)
 CCSD(T)= -0.19770752482D+03

 The electronic state is 1-SG.
 Alpha  occ. eigenvalues --   -5.26454  -3.47327  -3.45863  -3.45863  -0.55904
 Alpha  occ. eigenvalues --   -0.52638  -0.52638  -0.51352  -0.51352  -0.33520
 Alpha virt. eigenvalues --    0.00674   0.02966   0.02966   0.03323   0.05998
 Alpha virt. eigenvalues --    0.10074   0.10291   0.10291   0.17265   0.19279
 Alpha virt. eigenvalues --    0.19279   0.20583   0.20583   0.22179   0.25995

 Mulliken charges and spin densities:
               1          2
     1  Cu   0.315802   0.000000
     2  H   -0.315802   0.000000
 Sum of Mulliken charges =   0.00000   0.00000

 Dipole moment (field-independent basis, Debye):
    X=              0.0000    Y=              0.0000    Z=              3.3565  Tot=              3.3565
 Quadrupole moment (field-independent basis, Debye-Ang):
   XX=            -13.9761   YY=            -13.9761   ZZ=            -14.6141
   XY=              0.0000   XZ=              0.0000   YZ=              0.0000

 P ROCCSD(T)=(MaxCyc=150, Full)/Gen SCF=(maxcycle=400) Pseudo=Read Inte
 2-0=-197.7924569\MP4SDQ=-197.7468952\CCSD=-197.6692606\CCSD(T)=-197.70
 Normal termination of Gaussian 16 at Wed Apr  4 23:00:17 2018.
