 Gaussian 16, Revision A.03,
 Gaussian 16:  ES64L-G16RevA.03 25-Dec-2016

 ----------------------------------------------------------------------
 #P ROCCSD(T)=(MaxCyc=150, Full)/Gen SCF=(maxcycle=400) Pseudo=Read Int
 egral(NoXCTest) Pop=Regular MaxDisk=500GB Guess=Read IOp(5/15=2)
 ----------------------------------------------------------------------

 ---
 CuH
 ---
 Symbolic Z-matrix:
 Charge =  0 Multiplicity = 1

                         Standard orientation:
 ---------------------------------------------------------------------
 Center     Atomic      Atomic             Coordinates (Angstroms)
 Number     Number       Type             X           Y           Z
 ---------------------------------------------------------------------
      1         29           0        0.000000    0.000000    0.040000
      2          1           0        0.000000    0.000000   -1.160000
 ---------------------------------------------------------------------

 SCF Done:  E(ROHF) =  -196.694002790     A.U. after    9 cycles
 E2 =    -0.1151610019D+01 EUMP2 =    -0.19784561280901D+03
 CCSD(T)
 CCSD(T)= -0.19775924961D+03

 The electronic state is 1-SG.
 Alpha  occ. eigenvalues --   -5.26455  -3.47317  -3.45859  -3.45859  -0.55903
 Alpha  occ. eigenvalues --   -0.52641  -0.52641  -0.51358  -0.51358  -0.33523
 Alpha virt. eigenvalues --    0.00638   0.02681   0.02681   0.03013   0.05571
 Alpha virt. eigenvalues --    0.08964   0.08964   0.09129   0.13372   0.13372
 Alpha virt. eigenvalues --    0.13431   0.14040   0.14040   0.20291   0.22802

 Mulliken charges and spin densities:
               1          2
     1  Cu   0.296948   0.000000
     2  H   -0.296948   0.000000
 Sum of Mulliken charges =  -0.00000   0.00000

 Dipole moment (field-independent basis, Debye):
    X=              0.0000    Y=              0.0000    Z=              3.3473  Tot=              3.3473
 Quadrupole moment (field-independent basis, Debye-Ang):
   XX=            -13.9664   YY=            -13.9664   ZZ=            -14.6275
   XY=              0.0000   XZ=              0.0000   YZ=              0.0000

 P ROCCSD(T)=(MaxCyc=150, Full)/Gen SCF=(maxcycle=400) Pseudo=Read Inte
 2-0=-197.8456128\MP4SDQ=-197.7957062\CCSD=-197.7189854\CCSD(T)=-197.75
 Normal termination of Gaussian 16 at Wed Apr  4 23:52:46 2018.
