 Gaussian 16, Revision A.03,
 Gaussian 16:  ES64L-G16RevA.03 25-Dec-2016

 ----------------------------------------------------------------------
 #P ROCCSD(T)=(MaxCyc=150, Full)/Gen SCF=(maxcycle=400) Pseudo=Read Int
 egral(NoXCTest) Pop=Regular MaxDisk=500GB Guess=Read IOp(5/15=2)
 ----------------------------------------------------------------------

 ---
 CuH
 ---
 Symbolic Z-matrix:
 Charge =  0 Multiplicity = 1

                         Standard orientation:
 ---------------------------------------------------------------------
 Center     Atomic      Atomic             Coordinates (Angstroms)
 Number     Number       Type             X           Y           Z
 ---------------------------------------------------------------------
      1         29           0        0.000000    0.000000    0.040000
      2          1           0        0.000000    0.000000   -1.160000
 ---------------------------------------------------------------------

 SCF Done:  E(ROHF) =  -196.694095569     A.U. after    8 cycles
 E2 =    -0.1176589231D+01 EUMP2 =    -0.19787068479911D+03
 CCSD(T)
 CCSD(T)= -0.19778210375D+03

 The electronic state is 1-SG.
 Alpha  occ. eigenvalues --   -5.26457  -3.47318  -3.45860  -3.45860  -0.55903
 Alpha  occ. eigenvalues --   -0.52644  -0.52644  -0.51359  -0.51359  -0.33523
 Alpha virt. eigenvalues --    0.00532   0.02592   0.02592   0.02743   0.04719
 Alpha virt. eigenvalues --    0.07866   0.08597   0.08597   0.11934   0.11934
 Alpha virt. eigenvalues --    0.12011   0.12606   0.12606   0.15138   0.18765

 Mulliken charges and spin densities:
               1          2
     1  Cu   0.295486   0.000000
     2  H   -0.295486   0.000000
 Sum of Mulliken charges =   0.00000   0.00000

 Dipole moment (field-independent basis, Debye):
    X=              0.0000    Y=              0.0000    Z=              3.3457  Tot=              3.3457
 Quadrupole moment (field-independent basis, Debye-Ang):
   XX=            -13.9650   YY=            -13.9650   ZZ=            -14.6297
   XY=              0.0000   XZ=              0.0000   YZ=              0.0000

 P ROCCSD(T)=(MaxCyc=150, Full)/Gen SCF=(maxcycle=400) Pseudo=Read Inte
 2-0=-197.8706848\MP4SDQ=-197.8172715\CCSD=-197.7410959\CCSD(T)=-197.78
 Normal termination of Gaussian 16 at Thu Apr  5 02:38:35 2018.
