 Gaussian 16, Revision A.03,
 Gaussian 16:  ES64L-G16RevA.03 25-Dec-2016

 ----------------------------------------------------------------------
 #P ROCCSD(T)=(maxcyc=150, Full)/Gen 5d 7f SCF=(maxcycles=300) Integral
 (NoXCTest) MaxDisk=500GB Pop=Regular Pseudo=Read IOp(5/15=2) Guess=Rea
 d
 ----------------------------------------------------------------------

 ---
 ScH
 ---
 Symbolic Z-matrix:
 Charge =  0 Multiplicity = 1

                         Standard orientation:
 ---------------------------------------------------------------------
 Center     Atomic      Atomic             Coordinates (Angstroms)
 Number     Number       Type             X           Y           Z
 ---------------------------------------------------------------------
      1         21           0        0.000000    0.000000    0.072727
      2          1           0        0.000000    0.000000   -1.527273
 ---------------------------------------------------------------------

 SCF Done:  E(ROHF) =  -46.7902956761     A.U. after    1 cycles
 E2 =    -0.4098872386D+00 EUMP2 =    -0.47200182914697D+02
 CCSD(T)
 CCSD(T)= -0.47243324116D+02

 The electronic state is 1-SG.
 Alpha  occ. eigenvalues --   -2.70913  -1.64941  -1.64456  -1.64456  -0.42966
 Alpha  occ. eigenvalues --   -0.22683
 Alpha virt. eigenvalues --    0.01271   0.01271   0.01670   0.02159   0.03529
 Alpha virt. eigenvalues --    0.03884   0.03884   0.03922   0.03922   0.04711
 Alpha virt. eigenvalues --    0.04711   0.05011   0.09191   0.09191   0.09410

 Mulliken charges and spin densities:
               1          2
     1  Sc   0.393089   0.000000
     2  H   -0.393089   0.000000
 Sum of Mulliken charges =  -0.00000   0.00000

 Dipole moment (field-independent basis, Debye):
    X=              0.0000    Y=              0.0000    Z=              0.9626  Tot=              0.9626
 Quadrupole moment (field-independent basis, Debye-Ang):
   XX=            -23.0707   YY=            -23.0707   ZZ=            -25.1936
   XY=              0.0000   XZ=              0.0000   YZ=              0.0000

 P ROCCSD(T)=(maxcyc=150, Full)/Gen 5d 7f SCF=(maxcycles=300) Integral(
 PMP2-0=-47.2001829\MP4SDQ=-47.2258219\CCSD=-47.2253801\CCSD(T)=-47.243
 Normal termination of Gaussian 16 at Wed Feb 14 01:46:30 2018.
