 Gaussian 16, Revision A.03,
 Gaussian 16:  ES64L-G16RevA.03 25-Dec-2016

 ----------------------------------------------------------------------
 #P ROCCSD(T)=(maxcyc=150, Full, SaveAmplitudes, ReadAmplitudes)/Gen 5d
  7f SCF=(maxcycles=300) Integral(NoXCTest) MaxDisk=500GB Pop=Regular P
 seudo=Read Guess=Read IOp(5/15=2)
 ----------------------------------------------------------------------

 ---
 CrH
 ---
 Symbolic Z-matrix:
 Charge =  0 Multiplicity = 6

                         Standard orientation:
 ---------------------------------------------------------------------
 Center     Atomic      Atomic             Coordinates (Angstroms)
 Number     Number       Type             X           Y           Z
 ---------------------------------------------------------------------
      1         24           0        0.000000    0.000000    0.040000
      2          1           0        0.000000    0.000000   -0.960000
 ---------------------------------------------------------------------

 SCF Done:  E(ROHF) =  -86.6287048012     A.U. after   51 cycles
 E2 =    -0.6116421620D+00 EUMP2 =    -0.87240346963224D+02
 CCSD(T)
 CCSD(T)= -0.87250559106D+02

 The electronic state is 6-SG.
 Alpha  occ. eigenvalues --   -3.63197  -2.34847  -2.32153  -2.32153  -0.50084
 Alpha  occ. eigenvalues --   -0.42645  -0.42645  -0.39392  -0.39392  -0.24862
 Alpha virt. eigenvalues --    0.01684   0.01932   0.01932   0.02429   0.06452
 Alpha virt. eigenvalues --    0.06614   0.06614   0.07913   0.07953   0.07953
 Alpha virt. eigenvalues --    0.08079   0.08079   0.09755   0.20673   0.22806

 Mulliken charges and spin densities:
               1          2
     1  Cr   0.430793   4.967672
     2  H   -0.430793   0.032328
 Sum of Mulliken charges =  -0.00000   5.00000

 Dipole moment (field-independent basis, Debye):
    X=              0.0000    Y=              0.0000    Z=              1.9801  Tot=              1.9801
 Quadrupole moment (field-independent basis, Debye-Ang):
   XX=            -16.3166   YY=            -16.3166   ZZ=            -17.3736
   XY=              0.0000   XZ=              0.0000   YZ=              0.0000

 \\#P ROCCSD(T)=(maxcyc=150, Full, SaveAmplitudes, ReadAmplitudes)/Gen
 CCSD=-87.2288915\CCSD(T)=-87.2505591\RMSD=6.249e-09\PG=C*V [C*(H1Cr1)]
 Normal termination of Gaussian 16 at Sun Feb 25 17:03:16 2018.
