 Gaussian 16, Revision A.03,
 Gaussian 16:  ES64L-G16RevA.03 25-Dec-2016

 ----------------------------------------------------------------------
 #P ROCCSD(T)=(maxcyc=150, Full, SaveAmplitudes, ReadAmplitudes)/Gen 5d
  7f SCF=(maxcycles=300, VShift=400) Integral(NoXCTest) MaxDisk=500GB P
 op=Full Pseudo=Read Guess=Read IOp(5/15=2)
 ----------------------------------------------------------------------

 ---
 ScH
 ---
 Symbolic Z-matrix:
 Charge =  0 Multiplicity = 1

                         Standard orientation:
 ---------------------------------------------------------------------
 Center     Atomic      Atomic             Coordinates (Angstroms)
 Number     Number       Type             X           Y           Z
 ---------------------------------------------------------------------
      1         21           0        0.000000    0.000000    0.095455
      2          1           0        0.000000    0.000000   -2.004545
 ---------------------------------------------------------------------

 SCF Done:  E(ROHF) =  -46.6620935711     A.U. after   26 cycles
 E2 =    -0.4038590865D+00 EUMP2 =    -0.47065952657589D+02
 CCSD(T)
 CCSD(T)= -0.47114844201D+02

 The electronic state is 1-SG.
 Alpha  occ. eigenvalues --   -2.70997  -1.69380  -1.69380  -1.69169  -0.36827
 Alpha  occ. eigenvalues --   -0.24260
 Alpha virt. eigenvalues --    0.00936   0.00936   0.01183   0.02298   0.03588
 Alpha virt. eigenvalues --    0.03748   0.03748   0.03942   0.03942   0.04185
 Alpha virt. eigenvalues --    0.04257   0.04257   0.07117   0.07117   0.08235

 Mulliken charges and spin densities:
               1          2
     1  Sc   0.309030   0.000000
     2  H   -0.309030   0.000000
 Sum of Mulliken charges =  -0.00000   0.00000

 Dipole moment (field-independent basis, Debye):
    X=              0.0000    Y=              0.0000    Z=              2.5704  Tot=              2.5704
 Quadrupole moment (field-independent basis, Debye-Ang):
   XX=            -22.9138   YY=            -22.9138   ZZ=            -29.2181
   XY=              0.0000   XZ=              0.0000   YZ=              0.0000

 P ROCCSD(T)=(maxcyc=150, Full, SaveAmplitudes, ReadAmplitudes)/Gen 5d
 .0951793\CCSD=-47.0955399\CCSD(T)=-47.1148442\RMSD=7.987e-09\PG=C*V [C
 Normal termination of Gaussian 16 at Thu Apr 19 07:47:20 2018.
