 Gaussian 16, Revision A.03,
 Gaussian 16:  ES64L-G16RevA.03 25-Dec-2016

 ----------------------------------------------------------------------
 #P ROCCSD(T)=(MaxCyc=150, Full)/Gen SCF=(maxcycle=400, vshift=200) Pse
 udo=Read Integral(NoXCTest) Pop=Regular MaxDisk=500GB Guess=Read
 ----------------------------------------------------------------------

 ---
 NiO
 ---
 Symbolic Z-matrix:
 Charge =  0 Multiplicity = 3

                         Standard orientation:
 ---------------------------------------------------------------------
 Center     Atomic      Atomic             Coordinates (Angstroms)
 Number     Number       Type             X           Y           Z
 ---------------------------------------------------------------------
      1         28           0        0.000000    0.000000    0.333333
      2          8           0        0.000000    0.000000   -1.166667
 ---------------------------------------------------------------------

 SCF Done:  E(ROHF) =  -184.027313202     A.U. after   29 cycles
 E2 =    -0.1187779949D+01 EUMP2 =    -0.18521509315073D+03
 CCSD(T)
 CCSD(T)= -0.18522878300D+03

 The electronic state is 3-SG.
 Alpha  occ. eigenvalues --   -5.17344  -3.49250  -3.40354  -3.40354  -1.20381
 Alpha  occ. eigenvalues --   -0.79209  -0.79209  -0.71408  -0.69190  -0.69190
 Alpha  occ. eigenvalues --   -0.39627  -0.39627  -0.37784
 Alpha virt. eigenvalues --   -0.04280   0.02445   0.02445   0.02574   0.04262
 Alpha virt. eigenvalues --    0.08560   0.08560   0.10793   0.12349   0.12349
 Alpha virt. eigenvalues --    0.13261   0.13261   0.15567   0.16486   0.26393

 Mulliken charges and spin densities:
               1          2
     1  Ni   1.129452   1.833909
     2  O   -1.129452   0.166091
 Sum of Mulliken charges =  -0.00000   2.00000

 Dipole moment (field-independent basis, Debye):
    X=              0.0000    Y=              0.0000    Z=              7.3791  Tot=              7.3791
 Quadrupole moment (field-independent basis, Debye-Ang):
   XX=            -18.2975   YY=            -18.2975   ZZ=            -20.2891
   XY=              0.0000   XZ=              0.0000   YZ=              0.0000

 \\#P ROCCSD(T)=(MaxCyc=150, Full)/Gen SCF=(maxcycle=400, vshift=200) P
 MP2-0=-185.2150932\MP4SDQ=-185.1907449\CCSD=-185.1714757\CCSD(T)=-185.
 Normal termination of Gaussian 16 at Fri May 11 03:31:50 2018.
