 Gaussian 16, Revision A.03,
 Gaussian 16:  ES64L-G16RevA.03 25-Dec-2016

 ----------------------------------------------------------------------
 #P ROCCSD(T)=(MaxCyc=150, Full)/Gen SCF=(maxcycle=400, vshift=200) Pse
 udo=Read Integral(NoXCTest) Pop=Regular MaxDisk=500GB Guess=Read
 ----------------------------------------------------------------------

 ---
 NiO
 ---
 Symbolic Z-matrix:
 Charge =  0 Multiplicity = 3

                         Standard orientation:
 ---------------------------------------------------------------------
 Center     Atomic      Atomic             Coordinates (Angstroms)
 Number     Number       Type             X           Y           Z
 ---------------------------------------------------------------------
      1         28           0        0.000000    0.000000    0.333333
      2          8           0        0.000000    0.000000   -1.166667
 ---------------------------------------------------------------------

 SCF Done:  E(ROHF) =  -184.031051463     A.U. after   19 cycles
 E2 =    -0.1245516051D+01 EUMP2 =    -0.18527656751407D+03
 CCSD(T)
 CCSD(T)= -0.18528786495D+03

 The electronic state is 3-SG.
 Alpha  occ. eigenvalues --   -5.17337  -3.49226  -3.40337  -3.40337  -1.20333
 Alpha  occ. eigenvalues --   -0.79205  -0.79205  -0.71400  -0.69190  -0.69190
 Alpha  occ. eigenvalues --   -0.39629  -0.39629  -0.37777
 Alpha virt. eigenvalues --   -0.04271   0.02064   0.02064   0.02275   0.03858
 Alpha virt. eigenvalues --    0.07155   0.07155   0.07618   0.08102   0.08102
 Alpha virt. eigenvalues --    0.09407   0.09407   0.13008   0.15226   0.22392

 Mulliken charges and spin densities:
               1          2
     1  Ni   0.974917   1.837323
     2  O   -0.974917   0.162677
 Sum of Mulliken charges =  -0.00000   2.00000

 Dipole moment (field-independent basis, Debye):
    X=              0.0000    Y=              0.0000    Z=              7.3655  Tot=              7.3655
 Quadrupole moment (field-independent basis, Debye-Ang):
   XX=            -18.2899   YY=            -18.2899   ZZ=            -20.2747
   XY=              0.0000   XZ=              0.0000   YZ=              0.0000

 \\#P ROCCSD(T)=(MaxCyc=150, Full)/Gen SCF=(maxcycle=400, vshift=200) P
 PMP2-0=-185.2765675\MP4SDQ=-185.2464348\CCSD=-185.2279469\CCSD(T)=-185
 Normal termination of Gaussian 16 at Fri May 11 04:43:11 2018.
