 Gaussian 16, Revision A.03,
 Gaussian 16:  ES64L-G16RevA.03 25-Dec-2016

 ----------------------------------------------------------------------
 #P ROCCSD(T)=(MaxCyc=150, Full)/Gen SCF=(maxcycle=400) Pseudo=Read Int
 egral(NoXCTest) Pop=Regular MaxDisk=500GB Guess=Read IOp(5/15=2)
 ----------------------------------------------------------------------

 ---
 NiO
 ---
 Symbolic Z-matrix:
 Charge =  0 Multiplicity = 3

                         Standard orientation:
 ---------------------------------------------------------------------
 Center     Atomic      Atomic             Coordinates (Angstroms)
 Number     Number       Type             X           Y           Z
 ---------------------------------------------------------------------
      1         28           0        0.000000    0.000000    0.333333
      2          8           0        0.000000    0.000000   -1.166667
 ---------------------------------------------------------------------

 SCF Done:  E(ROHF) =  -184.697800189     A.U. after   18 cycles
 E2 =    -0.1255932501D+01 EUMP2 =    -0.18595373269001D+03
 CCSD(T)
 CCSD(T)= -0.18596405567D+03

 The electronic state is 3-SG.
 Alpha  occ. eigenvalues --   -5.20759  -3.49701  -3.40827  -3.40827  -1.20254
 Alpha  occ. eigenvalues --   -0.79163  -0.79163  -0.71443  -0.69171  -0.69171
 Alpha  occ. eigenvalues --   -0.39501  -0.39501  -0.37895
 Alpha virt. eigenvalues --   -0.04391   0.02056   0.02056   0.02237   0.03861
 Alpha virt. eigenvalues --    0.07143   0.07143   0.07612   0.08101   0.08101
 Alpha virt. eigenvalues --    0.09405   0.09405   0.13012   0.15167   0.22326

 Mulliken charges and spin densities:
               1          2
     1  Ni   0.975586   1.838065
     2  O   -0.975586   0.161935
 Sum of Mulliken charges =  -0.00000   2.00000

 Dipole moment (field-independent basis, Debye):
    X=              0.0000    Y=              0.0000    Z=              7.4160  Tot=              7.4160
 Quadrupole moment (field-independent basis, Debye-Ang):
   XX=            -18.2298   YY=            -18.2298   ZZ=            -20.2074
   XY=              0.0000   XZ=              0.0000   YZ=              0.0000

 \\#P ROCCSD(T)=(MaxCyc=150, Full)/Gen SCF=(maxcycle=400) Pseudo=Read I
 PMP2-0=-185.9537327\MP4SDQ=-185.9231193\CCSD=-185.9038786\CCSD(T)=-185
 Normal termination of Gaussian 16 at Mon Mar 26 20:53:05 2018.
