 Gaussian 16, Revision A.03,
 Gaussian 16:  ES64L-G16RevA.03 25-Dec-2016

 ----------------------------------------------------------------------
 #P ROCCSD(T)=(MaxCyc=150, Full)/Gen SCF=(maxcycle=400) Pseudo=Read Int
 egral(NoXCTest) Pop=Regular MaxDisk=500GB Guess=Read IOp(5/15=2)
 ----------------------------------------------------------------------

 ---
 NiO
 ---
 Symbolic Z-matrix:
 Charge =  0 Multiplicity = 3

                         Standard orientation:
 ---------------------------------------------------------------------
 Center     Atomic      Atomic             Coordinates (Angstroms)
 Number     Number       Type             X           Y           Z
 ---------------------------------------------------------------------
      1         28           0        0.000000    0.000000    0.333333
      2          8           0        0.000000    0.000000   -1.166667
 ---------------------------------------------------------------------

 SCF Done:  E(ROHF) =  -184.693994673     A.U. after   21 cycles
 E2 =    -0.1198245625D+01 EUMP2 =    -0.18589224029745D+03
 CCSD(T)
 CCSD(T)= -0.18590502897D+03

 The electronic state is 3-SG.
 Alpha  occ. eigenvalues --   -5.20764  -3.49730  -3.40848  -3.40848  -1.20303
 Alpha  occ. eigenvalues --   -0.79167  -0.79167  -0.71451  -0.69171  -0.69171
 Alpha  occ. eigenvalues --   -0.39499  -0.39499  -0.37903
 Alpha virt. eigenvalues --   -0.04401   0.02438   0.02438   0.02534   0.04268
 Alpha virt. eigenvalues --    0.08537   0.08537   0.10774   0.12347   0.12347
 Alpha virt. eigenvalues --    0.13264   0.13264   0.15585   0.16415   0.26412

 Mulliken charges and spin densities:
               1          2
     1  Ni   1.130676   1.834563
     2  O   -1.130676   0.165437
 Sum of Mulliken charges =  -0.00000   2.00000

 Dipole moment (field-independent basis, Debye):
    X=              0.0000    Y=              0.0000    Z=              7.4296  Tot=              7.4296
 Quadrupole moment (field-independent basis, Debye-Ang):
   XX=            -18.2374   YY=            -18.2374   ZZ=            -20.2220
   XY=              0.0000   XZ=              0.0000   YZ=              0.0000

 \\#P ROCCSD(T)=(MaxCyc=150, Full)/Gen SCF=(maxcycle=400) Pseudo=Read I
 PMP2-0=-185.8922403\MP4SDQ=-185.8674833\CCSD=-185.8474649\CCSD(T)=-185
 Normal termination of Gaussian 16 at Mon Mar 26 18:17:56 2018.
