 Gaussian 16, Revision A.03,
 Gaussian 16:  ES64L-G16RevA.03 25-Dec-2016

 ----------------------------------------------------------------------
 #P ROCCSD(T)=(MaxCyc=150, Full)/Gen SCF=(maxcycle=400, vshift=200) Int
 egral(DKHSO, NoXCTest) Pop=Regular MaxDisk=500GB Guess=Read IOp(5/15=2
 )
 ----------------------------------------------------------------------

 ---
 CuH
 ---
 Symbolic Z-matrix:
 Charge =  0 Multiplicity = 1

                         Standard orientation:
 ---------------------------------------------------------------------
 Center     Atomic      Atomic             Coordinates (Angstroms)
 Number     Number       Type             X           Y           Z
 ---------------------------------------------------------------------
      1         29           0        0.000000    0.000000    0.050000
      2          1           0        0.000000    0.000000   -1.450000
 ---------------------------------------------------------------------

 SCF Done:  E(ROHF) =  -1653.71354183     A.U. after    1 cycles
 E2 =    -0.1517373337D+01 EUMP2 =    -0.16552309151702D+04
 CCSD(T)
 CCSD(T)= -0.16551268408D+04

 The electronic state is 1-SG.
 Alpha  occ. eigenvalues -- -332.50534 -41.68013 -35.82016 -35.82016 -35.81885
 Alpha  occ. eigenvalues --   -5.17413  -3.38184  -3.37752  -3.37752  -0.50480
 Alpha  occ. eigenvalues --   -0.49806  -0.49806  -0.49598  -0.49598  -0.34020
 Alpha virt. eigenvalues --    0.00146   0.02937   0.02937   0.03591   0.05408
 Alpha virt. eigenvalues --    0.10012   0.10356   0.10356   0.17204   0.19625
 Alpha virt. eigenvalues --    0.19625   0.20361   0.20361   0.21318   0.25907

 Mulliken charges and spin densities:
               1          2
     1  Cu   0.366047   0.000000
     2  H   -0.366047   0.000000
 Sum of Mulliken charges =  -0.00000   0.00000

 Dipole moment (field-independent basis, Debye):
    X=              0.0000    Y=              0.0000    Z=              3.9681  Tot=              3.9681
 Quadrupole moment (field-independent basis, Debye-Ang):
   XX=            -13.8651   YY=            -13.8651   ZZ=            -16.1930
   XY=              0.0000   XZ=              0.0000   YZ=              0.0000

 P ROCCSD(T)=(MaxCyc=150, Full)/Gen SCF=(maxcycle=400, vshift=200) Inte
 Normal termination of Gaussian 16 at Wed Apr  4 19:24:28 2018.
