 Gaussian 16, Revision A.03,
 Gaussian 16:  ES64L-G16RevA.03 25-Dec-2016

 ----------------------------------------------------------------------
 #P ROCCSD(T)=(maxcyc=150, Full)/Gen 5d 7f SCF=(maxcycles=300, NoVarAcc
 , VShift=200) MaxDisk=100GB Pop=Regular Pseudo=Read Guess=Read
 ----------------------------------------------------------------------

 --
 Sc
 --
 Symbolic Z-matrix:
 Charge =  0 Multiplicity = 2

                         Standard orientation:
 ---------------------------------------------------------------------
 Center     Atomic      Atomic             Coordinates (Angstroms)
 Number     Number       Type             X           Y           Z
 ---------------------------------------------------------------------
      1         21           0        0.000000    0.000000    0.000000
 ---------------------------------------------------------------------

 SCF Done:  E(ROHF) =  -46.1546434618     A.U. after   17 cycles
 E2 =    -0.3853616661D+00 EUMP2 =    -0.46540005127872D+02
 CCSD(T)
 CCSD(T)= -0.46575359662D+02

 Unable to determine electronic state:  an orbital has unidentified symmetry.
 Alpha  occ. eigenvalues --   -2.63289  -1.62856  -1.62856  -1.58993  -0.34705
 Alpha  occ. eigenvalues --   -0.21548
 Alpha virt. eigenvalues --    0.01186   0.01277   0.01277   0.02125   0.02886
 Alpha virt. eigenvalues --    0.02889   0.02889   0.02898   0.02919   0.04319
 Alpha virt. eigenvalues --    0.04441   0.04441   0.08096   0.08214   0.08214

 Mulliken charges and spin densities:
               1          2
     1  Sc   0.000000   1.000000
 Sum of Mulliken charges =   0.00000   1.00000

 Dipole moment (field-independent basis, Debye):
    X=              0.0000    Y=              0.0000    Z=              0.0000  Tot=              0.0000
 Quadrupole moment (field-independent basis, Debye-Ang):
   XX=            -23.3120   YY=            -23.3120   ZZ=            -23.0169
   XY=             -0.0000   XZ=              0.0000   YZ=             -0.0000

 1\1\GINC-C455-014\SP\ROCCSD(T)-Full\Gen\Sc1(2)\AANNABE\06-Mar-2018\0\\
 #P ROCCSD(T)=(maxcyc=150, Full)/Gen 5d 7f SCF=(maxcycles=300, NoVarAcc
 , VShift=200) MaxDisk=100GB Pop=Regular Pseudo=Read Guess=Read\\Sc\\0,
 2\Sc,0,0.,0.,0.\\Version=ES64L-G16RevA.03\HF=-46.1546435\MP2=-46.54000
 51\MP3=-46.5600978\PUHF=-46.1546435\PMP2-0=-46.5400051\MP4SDQ=-46.5596
 204\CCSD=-46.5598555\CCSD(T)=-46.5753597\RMSD=8.621e-09\PG=OH [O(Sc1)]
 \\@

 Normal termination of Gaussian 16 at Tue Mar  6 11:37:51 2018.
