 Gaussian 16, Revision A.03,
 Gaussian 16:  ES64L-G16RevA.03 25-Dec-2016

 ----------------------------------------------------------------------
 #P ROCCSD(T)=(maxcyc=150, Full, SaveAmplitudes, ReadAmplitudes)/Gen 5d
  7f SCF=(maxcycles=300) Integral(NoXCTest) MaxDisk=500GB Pop=Regular P
 seudo=Read Guess=Read
 ----------------------------------------------------------------------

 ---
 CrH
 ---
 Symbolic Z-matrix:
 Charge =  0 Multiplicity = 6

                         Standard orientation:
 ---------------------------------------------------------------------
 Center     Atomic      Atomic             Coordinates (Angstroms)
 Number     Number       Type             X           Y           Z
 ---------------------------------------------------------------------
      1         24           0        0.000000    0.000000    0.080000
      2          1           0        0.000000    0.000000   -1.920000
 ---------------------------------------------------------------------

 SCF Done:  E(ROHF) =  -86.8688488085     A.U. after   21 cycles
 E2 =    -0.5607070349D+00 EUMP2 =    -0.87429555843335D+02
 CCSD(T)
 CCSD(T)= -0.87481186131D+02

 The electronic state is 6-SG.
 Alpha  occ. eigenvalues --   -3.70476  -2.46928  -2.46928  -2.41834  -0.57783
 Alpha  occ. eigenvalues --   -0.57783  -0.54192  -0.54192  -0.37938  -0.26856
 Alpha virt. eigenvalues --    0.00936   0.00936   0.01883   0.02504   0.04525
 Alpha virt. eigenvalues --    0.04692   0.04692   0.05263   0.05263   0.05649
 Alpha virt. eigenvalues --    0.05649   0.06753   0.09662   0.12144   0.15968

 Mulliken charges and spin densities:
               1          2
     1  Cr   0.341163   4.974942
     2  H   -0.341163   0.025058
 Sum of Mulliken charges =  -0.00000   5.00000

 Dipole moment (field-independent basis, Debye):
    X=              0.0000    Y=              0.0000    Z=              2.8650  Tot=              2.8650
 Quadrupole moment (field-independent basis, Debye-Ang):
   XX=            -17.1164   YY=            -17.1164   ZZ=            -27.0077
   XY=              0.0000   XZ=              0.0000   YZ=              0.0000

 \\#P ROCCSD(T)=(maxcyc=150, Full, SaveAmplitudes, ReadAmplitudes)/Gen
 88488\PMP2-0=-87.4295558\CCSD=-87.4646204\CCSD(T)=-87.4811861\RMSD=8.8
 Normal termination of Gaussian 16 at Mon Feb 26 16:20:35 2018.
