 Gaussian 16, Revision A.03,
 Gaussian 16:  ES64L-G16RevA.03 25-Dec-2016

 ----------------------------------------------------------------------
 #P ROCCSD(T)=(maxcyc=150, Window=(6,0), SaveAmplitudes, ReadAmplitudes
 )/Gen 5d 7f SCF=(maxcycles=300) Integral(NoXCTest, DKHSO) MaxDisk=500G
 B Pop=Regular Guess=Read
 ----------------------------------------------------------------------

 ---
 CrH
 ---
 Symbolic Z-matrix:
 Charge =  0 Multiplicity = 6

                         Standard orientation:
 ---------------------------------------------------------------------
 Center     Atomic      Atomic             Coordinates (Angstroms)
 Number     Number       Type             X           Y           Z
 ---------------------------------------------------------------------
      1         24           0        0.000000    0.000000    0.076000
      2          1           0        0.000000    0.000000   -1.824000
 ---------------------------------------------------------------------

 SCF Done:  E(ROHF) =  -1050.20100448     A.U. after   20 cycles
 E2 =    -0.5317822946D+00 EUMP2 =    -0.10507327867737D+04
 CCSD(T)
 CCSD(T)= -0.10507338716D+04

 The electronic state is 6-SG.
 Alpha  occ. eigenvalues -- -222.22542 -26.81861 -22.45260 -22.45260 -22.45250
 Alpha  occ. eigenvalues --   -3.69066  -2.44518  -2.44518  -2.40231  -0.56694
 Alpha  occ. eigenvalues --   -0.56694  -0.53313  -0.53313  -0.38762  -0.26521
 Alpha virt. eigenvalues --    0.01072   0.01072   0.01915   0.02462   0.04563
 Alpha virt. eigenvalues --    0.04843   0.04843   0.05289   0.05289   0.05654
 Alpha virt. eigenvalues --    0.05654   0.06780   0.09629   0.12293   0.16350

 Mulliken charges and spin densities:
               1          2
     1  Cr   0.327723   4.977553
     2  H   -0.327723   0.022447
 Sum of Mulliken charges =  -0.00000   5.00000

 Dipole moment (field-independent basis, Debye):
    X=              0.0000    Y=             -0.0000    Z=              2.6366  Tot=              2.6366
 Quadrupole moment (field-independent basis, Debye-Ang):
   XX=            -17.4664   YY=            -17.4664   ZZ=            -26.3950
   XY=             -0.0000   XZ=             -0.0000   YZ=             -0.0000

 1\1\GINC-C505-052\SP\ROCCSD(T)-RW\Gen\Cr1H1(6)\AANNABE\26-Feb-2018\0\\
 #P ROCCSD(T)=(maxcyc=150, Window=(6,0), SaveAmplitudes, ReadAmplitudes
 )/Gen 5d 7f SCF=(maxcycles=300) Integral(NoXCTest, DKHSO) MaxDisk=500G
 B Pop=Regular Guess=Read\\CrH\\0,6\Cr,0,0.,0.,0.\H,0,0.,0.,1.9\\Versio
 n=ES64L-G16RevA.03\State=6-SG\HF=-1050.2010045\MP2=-1050.7327868\PUHF=
 -1050.2010045\PMP2-0=-1050.7327868\CCSD=-1050.7236574\CCSD(T)=-1050.73
 38716\RMSD=6.573e-09\PG=C*V [C*(H1Cr1)]\\@

 Normal termination of Gaussian 16 at Mon Feb 26 04:34:51 2018.
