 Gaussian 16, Revision A.03,
 Gaussian 16:  ES64L-G16RevA.03 25-Dec-2016

 ----------------------------------------------------------------------
 #P ROCCSD(T)=(maxcyc=150, Full, SaveAmplitudes, ReadAmplitudes)/Gen 5d
  7f SCF=(maxcycles=300, VShift=400) Integral(NoXCTest) MaxDisk=500GB P
 op=Full Pseudo=Read Guess=Read IOp(5/15=2)
 ----------------------------------------------------------------------

 ---
 MnO
 ---
 Symbolic Z-matrix:
 Charge =  0 Multiplicity = 6

                         Standard orientation:
 ---------------------------------------------------------------------
 Center     Atomic      Atomic             Coordinates (Angstroms)
 Number     Number       Type             X           Y           Z
 ---------------------------------------------------------------------
      1         25           0        0.000000    0.000000    0.436364
      2          8           0        0.000000    0.000000   -1.363636
 ---------------------------------------------------------------------

 SCF Done:  E(ROHF) =  -119.362716791     A.U. after   64 cycles
 E2 =    -0.8985084202D+00 EUMP2 =    -0.12026122521152D+03
 CCSD(T)
 CCSD(T)= -0.12028849243D+03

 The electronic state is 6-SG.
 Alpha  occ. eigenvalues --   -4.17786  -2.76912  -2.76912  -2.76399  -1.09739
 Alpha  occ. eigenvalues --   -0.65895  -0.65895  -0.65573  -0.65573  -0.62424
 Alpha  occ. eigenvalues --   -0.34032  -0.34032  -0.33115
 Alpha virt. eigenvalues --   -0.05044   0.01427   0.01427   0.01692   0.03823
 Alpha virt. eigenvalues --    0.06482   0.06482   0.08199   0.08364   0.08364
 Alpha virt. eigenvalues --    0.09470   0.09470   0.12885   0.14003   0.22800

 Mulliken charges and spin densities:
               1          2
     1  Mn   1.117909   4.930593
     2  O   -1.117909   0.069407
 Sum of Mulliken charges =  -0.00000   5.00000

 Dipole moment (field-independent basis, Debye):
    X=              0.0000    Y=              0.0000    Z=              9.3242  Tot=              9.3242
 Quadrupole moment (field-independent basis, Debye-Ang):
   XX=            -18.9561   YY=            -18.9561   ZZ=            -24.4960
   XY=              0.0000   XZ=              0.0000   YZ=              0.0000

 \\#P ROCCSD(T)=(maxcyc=150, Full, SaveAmplitudes, ReadAmplitudes)/Gen
 4SDQ=-120.2577327\CCSD=-120.2473418\CCSD(T)=-120.2884924\RMSD=9.939e-0
 Normal termination of Gaussian 16 at Sun Mar 18 19:06:04 2018.
