 Gaussian 16, Revision A.03,
 Gaussian 16:  ES64L-G16RevA.03 25-Dec-2016

 ----------------------------------------------------------------------
 #P ROCCSD(T)=(maxcyc=150, Full, SaveAmplitudes, ReadAmplitudes)/Gen 5d
  7f SCF=(maxcycles=300) Integral(NoXCTest) MaxDisk=500GB Pop=Regular P
 seudo=Read Guess=Read
 ----------------------------------------------------------------------

 ---
 CrO
 ---
 Symbolic Z-matrix:
 Charge =  0 Multiplicity = 5

                         Standard orientation:
 ---------------------------------------------------------------------
 Center     Atomic      Atomic             Coordinates (Angstroms)
 Number     Number       Type             X           Y           Z
 ---------------------------------------------------------------------
      1         24           0        0.000000    0.000000    0.400000
      2          8           0        0.000000    0.000000   -1.200000
 ---------------------------------------------------------------------

 SCF Done:  E(ROHF) =  -102.023562357     A.U. after   25 cycles
 E2 =    -0.9364791401D+00 EUMP2 =    -0.10296004149705D+03
 CCSD(T)
 CCSD(T)= -0.10298595533D+03

 Unable to determine electronic state:  an orbital has unidentified symmetry.
 Alpha  occ. eigenvalues --   -3.72058  -2.49577  -2.45714  -2.42195  -1.16211
 Alpha  occ. eigenvalues --   -0.61999  -0.58591  -0.57273  -0.47889  -0.43232
 Alpha  occ. eigenvalues --   -0.38824  -0.31910
 Alpha virt. eigenvalues --   -0.00167   0.00417   0.01512   0.02598   0.03514
 Alpha virt. eigenvalues --    0.03958   0.05306   0.05307   0.05386   0.05796
 Alpha virt. eigenvalues --    0.05848   0.06261   0.10719   0.12479   0.12640

 Mulliken charges and spin densities:
               1          2
     1  Cr   1.069196   3.906178
     2  O   -1.069196   0.093822
 Sum of Mulliken charges =  -0.00000   4.00000

 Dipole moment (field-independent basis, Debye):
    X=              0.0000    Y=              0.0000    Z=              6.0266  Tot=              6.0266
 Quadrupole moment (field-independent basis, Debye-Ang):
   XX=            -20.6308   YY=            -19.5345   ZZ=            -24.1411
   XY=              0.0000   XZ=              0.0000   YZ=              0.0000

 \\#P ROCCSD(T)=(maxcyc=150, Full, SaveAmplitudes, ReadAmplitudes)/Gen
 MP2-0=-102.9600415\CCSD=-102.9329508\CCSD(T)=-102.9859553\RMSD=9.671e-
 Normal termination of Gaussian 16 at Mon Mar 12 16:15:31 2018.
