 Gaussian 16, Revision A.03,
 Gaussian 16:  ES64L-G16RevA.03 25-Dec-2016

 ----------------------------------------------------------------------
 #P ROCCSD(T)=(maxcyc=150, Full)/Gen 5d 7f SCF=(maxcycles=300) Integral
 (NoXCTest) MaxDisk=500GB Pop=Regular Pseudo=Read Guess=Read
 ----------------------------------------------------------------------

 ---
 ScH
 ---
 Symbolic Z-matrix:
 Charge =  0 Multiplicity = 1

                         Standard orientation:
 ---------------------------------------------------------------------
 Center     Atomic      Atomic             Coordinates (Angstroms)
 Number     Number       Type             X           Y           Z
 ---------------------------------------------------------------------
      1         21           0        0.000000    0.000000    0.090909
      2          1           0        0.000000    0.000000   -1.909091
 ---------------------------------------------------------------------

 SCF Done:  E(ROHF) =  -46.6547982673     A.U. after    9 cycles
 E2 =    -0.4272030904D+00 EUMP2 =    -0.47082001357755D+02
 CCSD(T)
 CCSD(T)= -0.47126261620D+02

 The electronic state is 1-SG.
 Alpha  occ. eigenvalues --   -2.70624  -1.68239  -1.68239  -1.68046  -0.37992
 Alpha  occ. eigenvalues --   -0.23935
 Alpha virt. eigenvalues --    0.00975   0.00975   0.01222   0.01795   0.02573
 Alpha virt. eigenvalues --    0.02573   0.02677   0.02677   0.02732   0.03627
 Alpha virt. eigenvalues --    0.03854   0.03854   0.06415   0.06415   0.07067

 Mulliken charges and spin densities:
               1          2
     1  Sc   0.367365   0.000000
     2  H   -0.367365   0.000000
 Sum of Mulliken charges =  -0.00000   0.00000

 Dipole moment (field-independent basis, Debye):
    X=              0.0000    Y=              0.0000    Z=              2.1993  Tot=              2.1993
 Quadrupole moment (field-independent basis, Debye-Ang):
   XX=            -22.9208   YY=            -22.9208   ZZ=            -28.3447
   XY=              0.0000   XZ=              0.0000   YZ=              0.0000

 P ROCCSD(T)=(maxcyc=150, Full)/Gen 5d 7f SCF=(maxcycles=300) Integral(
 20014\MP4SDQ=-47.1053527\CCSD=-47.105822\CCSD(T)=-47.1262616\RMSD=3.32
 Normal termination of Gaussian 16 at Tue Feb 13 09:28:24 2018.
