 Gaussian 16, Revision A.03,
 Gaussian 16:  ES64L-G16RevA.03 25-Dec-2016

 ----------------------------------------------------------------------
 #P ROCCSD(T)=(maxcyc=150, Full)/Gen 5d 7f SCF=(maxcycles=300) Integral
 (NoXCTest) MaxDisk=500GB Pop=Regular Pseudo=Read IOp(5/15=2) Guess=Rea
 d
 ----------------------------------------------------------------------

 ---
 ScH
 ---
 Symbolic Z-matrix:
 Charge =  0 Multiplicity = 1

                         Standard orientation:
 ---------------------------------------------------------------------
 Center     Atomic      Atomic             Coordinates (Angstroms)
 Number     Number       Type             X           Y           Z
 ---------------------------------------------------------------------
      1         21           0        0.000000    0.000000    0.063636
      2          1           0        0.000000    0.000000   -1.336364
 ---------------------------------------------------------------------

 SCF Done:  E(ROHF) =  -46.7500221603     A.U. after   11 cycles
 E2 =    -0.4332005220D+00 EUMP2 =    -0.47183222682374D+02
 CCSD(T)
 CCSD(T)= -0.47222760656D+02

 The electronic state is 1-SG.
 Alpha  occ. eigenvalues --   -2.70651  -1.63066  -1.61333  -1.61333  -0.45278
 Alpha  occ. eigenvalues --   -0.21966
 Alpha virt. eigenvalues --    0.01252   0.01252   0.01540   0.01910   0.02888
 Alpha virt. eigenvalues --    0.02888   0.02894   0.02894   0.02907   0.04325
 Alpha virt. eigenvalues --    0.04325   0.04457   0.07863   0.08048   0.08048

 Mulliken charges and spin densities:
               1          2
     1  Sc   0.301778   0.000000
     2  H   -0.301778   0.000000
 Sum of Mulliken charges =  -0.00000   0.00000

 Dipole moment (field-independent basis, Debye):
    X=              0.0000    Y=              0.0000    Z=              0.6218  Tot=              0.6218
 Quadrupole moment (field-independent basis, Debye-Ang):
   XX=            -23.4551   YY=            -23.4551   ZZ=            -23.9414
   XY=              0.0000   XZ=              0.0000   YZ=              0.0000

 P ROCCSD(T)=(maxcyc=150, Full)/Gen 5d 7f SCF=(maxcycles=300) Integral(
 PMP2-0=-47.1832227\MP4SDQ=-47.2043885\CCSD=-47.2039572\CCSD(T)=-47.222
 Normal termination of Gaussian 16 at Tue Feb 13 22:26:04 2018.
