 Gaussian 16, Revision A.03,
 Gaussian 16:  ES64L-G16RevA.03 25-Dec-2016

 ----------------------------------------------------------------------
 #P ROCCSD(T)=(MaxCyc=150, FrzINGC)/Gen SCF=(maxcycle=400, vshift=200)
 Integral(DKHSO, NoXCTest) Pop=Regular MaxDisk=500GB Guess=Read IOp(5/1
 5=2)
 ----------------------------------------------------------------------

 ---
 FeH
 ---
 Symbolic Z-matrix:
 Charge =  0 Multiplicity = 4

                         Standard orientation:
 ---------------------------------------------------------------------
 Center     Atomic      Atomic             Coordinates (Angstroms)
 Number     Number       Type             X           Y           Z
 ---------------------------------------------------------------------
      1         26           0        0.000000    0.000000    0.066667
      2          1           0        0.000000    0.000000   -1.733333
 ---------------------------------------------------------------------

 SCF Done:  E(ROHF) =  -1271.81827244     A.U. after   55 cycles
 E2 =    -0.7926869909D+00 EUMP2 =    -0.12726109594279D+04
 CCSD(T)
 CCSD(T)= -0.12726023976D+04

 Unable to determine electronic state:  an orbital has unidentified symmetry.
 Alpha  occ. eigenvalues -- -263.52680 -32.29861 -27.36795 -27.36795 -27.36609
 Alpha  occ. eigenvalues --   -4.19672  -2.74717  -2.74339  -2.74339  -0.48764
 Alpha  occ. eigenvalues --   -0.48764  -0.48447  -0.43476  -0.42729  -0.31781
 Alpha virt. eigenvalues --   -0.00881   0.02063   0.02063   0.02726   0.03115
 Alpha virt. eigenvalues --    0.05747   0.06151   0.06163   0.06365   0.06365
 Alpha virt. eigenvalues --    0.07342   0.07342   0.08866   0.12708   0.15920

 Mulliken charges and spin densities:
               1          2
     1  Fe   0.309251   2.997033
     2  H   -0.309251   0.002967
 Sum of Mulliken charges =  -0.00000   3.00000

 Dipole moment (field-independent basis, Debye):
    X=             -0.0000    Y=              0.0000    Z=              4.9763  Tot=              4.9763
 Quadrupole moment (field-independent basis, Debye-Ang):
   XX=            -15.6063   YY=            -15.6063   ZZ=            -19.2850
   XY=              0.0000   XZ=             -0.0000   YZ=              0.0001

 \#P ROCCSD(T)=(MaxCyc=150, FrzINGC)/Gen SCF=(maxcycle=400, vshift=200)
 \PMP2-0=-1272.6109594\MP4SDQ=-1272.5836497\CCSD=-1272.5749493\CCSD(T)=
 Normal termination of Gaussian 16 at Thu Mar  8 19:10:33 2018.
