 Gaussian 16, Revision A.03,
 Gaussian 16:  ES64L-G16RevA.03 25-Dec-2016

 ----------------------------------------------------------------------
 #P ROCCSD(T)=(maxcyc=150, Full, SaveAmplitudes, ReadAmplitudes)/Gen 5d
  7f SCF=(maxcycles=300, VShift=400) Integral(NoXCTest) MaxDisk=500GB P
 op=Full Pseudo=Read Guess=Read
 ----------------------------------------------------------------------

 ---
 MnH
 ---
 Symbolic Z-matrix:
 Charge =  0 Multiplicity = 7

                         Standard orientation:
 ---------------------------------------------------------------------
 Center     Atomic      Atomic             Coordinates (Angstroms)
 Number     Number       Type             X           Y           Z
 ---------------------------------------------------------------------
      1         25           0        0.000000    0.000000    0.053846
      2          1           0        0.000000    0.000000   -1.346154
 ---------------------------------------------------------------------

 SCF Done:  E(ROHF) =  -103.757109194     A.U. after   24 cycles
 E2 =    -0.6130994518D+00 EUMP2 =    -0.10437020864557D+03
 CCSD(T)
 CCSD(T)= -0.10439019901D+03

 The electronic state is 7-SG.
 Alpha  occ. eigenvalues --   -4.13901  -2.76192  -2.75966  -2.75966  -0.65543
 Alpha  occ. eigenvalues --   -0.63739  -0.63739  -0.63316  -0.63316  -0.41944
 Alpha  occ. eigenvalues --   -0.24817
 Alpha virt. eigenvalues --    0.01313   0.01313   0.02014   0.03071   0.05165
 Alpha virt. eigenvalues --    0.05165   0.05696   0.05829   0.05829   0.06185
 Alpha virt. eigenvalues --    0.06185   0.08522   0.13926   0.14765   0.17972

 Mulliken charges and spin densities:
               1          2
     1  Mn   0.401858   5.929052
     2  H   -0.401858   0.070948
 Sum of Mulliken charges =  -0.00000   6.00000

 Dipole moment (field-independent basis, Debye):
    X=              0.0000    Y=              0.0000    Z=              0.2884  Tot=              0.2884
 Quadrupole moment (field-independent basis, Debye-Ang):
   XX=            -15.9983   YY=            -15.9983   ZZ=            -25.4783
   XY=              0.0000   XZ=              0.0000   YZ=              0.0000

 \\#P ROCCSD(T)=(maxcyc=150, Full, SaveAmplitudes, ReadAmplitudes)/Gen
 \PUHF=-103.7571092\PMP2-0=-104.3702086\CCSD=-104.3728231\CCSD(T)=-104.
 Normal termination of Gaussian 16 at Thu Apr 19 09:04:54 2018.
