 Gaussian 16, Revision A.03,
 Gaussian 16:  ES64L-G16RevA.03 25-Dec-2016

 ----------------------------------------------------------------------
 #P ROCCSD(T)=(maxcyc=150, Full, SaveAmplitudes, ReadAmplitudes)/Gen 5d
  7f SCF=(maxcycles=300) Integral(NoXCTest) MaxDisk=500GB Pop=Regular P
 seudo=Read Guess=Read IOp(5/15=2)
 ----------------------------------------------------------------------

 ---
 CrO
 ---
 Symbolic Z-matrix:
 Charge =  0 Multiplicity = 5

                         Standard orientation:
 ---------------------------------------------------------------------
 Center     Atomic      Atomic             Coordinates (Angstroms)
 Number     Number       Type             X           Y           Z
 ---------------------------------------------------------------------
      1         24           0        0.000000    0.000000    0.325000
      2          8           0        0.000000    0.000000   -0.975000
 ---------------------------------------------------------------------

 SCF Done:  E(ROHF) =  -101.905937034     A.U. after   29 cycles
 E2 =    -0.8911700567D+00 EUMP2 =    -0.10279710709025D+03
 CCSD(T)
 CCSD(T)= -0.10280843420D+03

 Unable to determine electronic state:  an orbital has unidentified symmetry.
 Alpha  occ. eigenvalues --   -3.74598  -2.45005  -2.43769  -2.40725  -1.24164
 Alpha  occ. eigenvalues --   -0.68865  -0.59604  -0.59418  -0.51652  -0.51236
 Alpha  occ. eigenvalues --   -0.35640  -0.27263
 Alpha virt. eigenvalues --    0.01379   0.02290   0.02451   0.02893   0.05298
 Alpha virt. eigenvalues --    0.06604   0.07298   0.07738   0.07742   0.07897
 Alpha virt. eigenvalues --    0.08726   0.09836   0.12241   0.17269   0.19364

 Mulliken charges and spin densities:
               1          2
     1  Cr   0.903460   3.767382
     2  O   -0.903460   0.232618
 Sum of Mulliken charges =  -0.00000   4.00000

 Dipole moment (field-independent basis, Debye):
    X=              0.0000    Y=              0.0000    Z=              1.8390  Tot=              1.8390
 Quadrupole moment (field-independent basis, Debye-Ang):
   XX=            -21.3220   YY=            -19.6762   ZZ=            -23.4696
   XY=              0.0000   XZ=              0.0000   YZ=              0.0000

 \\#P ROCCSD(T)=(maxcyc=150, Full, SaveAmplitudes, ReadAmplitudes)/Gen
 -102.7657901\CCSD(T)=-102.8084342\RMSD=4.591e-09\PG=C*V [C*(O1Cr1)]\\@
 Normal termination of Gaussian 16 at Tue Mar 13 02:48:36 2018.
