 Gaussian 16, Revision A.03,
 Gaussian 16:  ES64L-G16RevA.03 25-Dec-2016

 ----------------------------------------------------------------------
 #P ROCCSD(T)=(maxcyc=150, Full, SaveAmplitudes, ReadAmplitudes)/Gen 5d
  7f SCF=(maxcycles=300) Integral(NoXCTest) MaxDisk=500GB Pop=Regular P
 seudo=Read Guess=Read IOp(5/15=2)
 ----------------------------------------------------------------------

 ---
 ScO
 ---
 Symbolic Z-matrix:
 Charge =  0 Multiplicity = 2

                         Standard orientation:
 ---------------------------------------------------------------------
 Center     Atomic      Atomic             Coordinates (Angstroms)
 Number     Number       Type             X           Y           Z
 ---------------------------------------------------------------------
      1         21           0        0.000000    0.000000    0.413793
      2          8           0        0.000000    0.000000   -1.086207
 ---------------------------------------------------------------------

 SCF Done:  E(ROHF) =  -61.9450507659     A.U. after   16 cycles
 E2 =    -0.6784567264D+00 EUMP2 =    -0.62623507492256D+02
 CCSD(T)
 CCSD(T)= -0.62651063761D+02

 The electronic state is 2-SG.
 Alpha  occ. eigenvalues --   -2.61178  -1.68121  -1.57555  -1.57555  -1.11539
 Alpha  occ. eigenvalues --   -0.47970  -0.47970  -0.45066  -0.22557
 Alpha virt. eigenvalues --    0.00615   0.00615   0.01951   0.02286   0.03706
 Alpha virt. eigenvalues --    0.03706   0.03850   0.03850   0.04117   0.04329
 Alpha virt. eigenvalues --    0.04329   0.06616   0.09779   0.09779   0.10879

 Mulliken charges and spin densities:
               1          2
     1  Sc   1.284676   0.978646
     2  O   -1.284676   0.021354
 Sum of Mulliken charges =  -0.00000   1.00000

 Dipole moment (field-independent basis, Debye):
    X=              0.0000    Y=              0.0000    Z=              2.7509  Tot=              2.7509
 Quadrupole moment (field-independent basis, Debye-Ang):
   XX=            -22.0009   YY=            -22.0009   ZZ=            -30.9672
   XY=              0.0000   XZ=              0.0000   YZ=              0.0000

 \\#P ROCCSD(T)=(maxcyc=150, Full, SaveAmplitudes, ReadAmplitudes)/Gen
 9\CCSD=-62.6156789\CCSD(T)=-62.6510638\RMSD=3.602e-09\PG=C*V [C*(O1Sc1
 Normal termination of Gaussian 16 at Wed Mar  7 11:45:00 2018.
