 Gaussian 16, Revision A.03,
 Gaussian 16:  ES64L-G16RevA.03 25-Dec-2016

 ----------------------------------------------------------------------
 #P ROCCSD(T)=(maxcyc=150, Full, SaveAmplitudes, ReadAmplitudes)/Gen 5d
  7f SCF=(maxcycles=300, VShift=400) Integral(NoXCTest) MaxDisk=500GB P
 op=Full Pseudo=Read Guess=Read IOp(5/15=2)
 ----------------------------------------------------------------------

 ---
 MnO
 ---
 Symbolic Z-matrix:
 Charge =  0 Multiplicity = 6

                         Standard orientation:
 ---------------------------------------------------------------------
 Center     Atomic      Atomic             Coordinates (Angstroms)
 Number     Number       Type             X           Y           Z
 ---------------------------------------------------------------------
      1         25           0        0.000000    0.000000    0.315152
      2          8           0        0.000000    0.000000   -0.984848
 ---------------------------------------------------------------------

 SCF Done:  E(ROHF) =  -119.199732878     A.U. after   46 cycles
 E2 =    -0.9386387712D+00 EUMP2 =    -0.12013837164947D+03
 CCSD(T)
 CCSD(T)= -0.12014492229D+03

 The electronic state is 6-SG.
 Alpha  occ. eigenvalues --   -4.11425  -2.73833  -2.73723  -2.73723  -1.27335
 Alpha  occ. eigenvalues --   -0.73763  -0.73763  -0.62102  -0.62102  -0.60004
 Alpha  occ. eigenvalues --   -0.41090  -0.41090  -0.29888
 Alpha virt. eigenvalues --    0.01913   0.02401   0.02401   0.03173   0.06414
 Alpha virt. eigenvalues --    0.07559   0.07559   0.08757   0.08757   0.09355
 Alpha virt. eigenvalues --    0.09355   0.10273   0.12089   0.16444   0.24577

 Mulliken charges and spin densities:
               1          2
     1  Mn   0.799768   4.766063
     2  O   -0.799768   0.233937
 Sum of Mulliken charges =  -0.00000   5.00000

 Dipole moment (field-independent basis, Debye):
    X=              0.0000    Y=              0.0000    Z=              2.7507  Tot=              2.7507
 Quadrupole moment (field-independent basis, Debye-Ang):
   XX=            -19.7303   YY=            -19.7303   ZZ=            -22.8551
   XY=              0.0000   XZ=              0.0000   YZ=              0.0000

 \\#P ROCCSD(T)=(maxcyc=150, Full, SaveAmplitudes, ReadAmplitudes)/Gen
 4SDQ=-120.120098\CCSD=-120.105031\CCSD(T)=-120.1449223\RMSD=8.723e-09\
 Normal termination of Gaussian 16 at Wed Apr  4 02:19:50 2018.
