 Gaussian 16, Revision A.03,
 Gaussian 16:  ES64L-G16RevA.03 25-Dec-2016

 ----------------------------------------------------------------------
 #P ROCCSD(T)=(maxcyc=150, Full, SaveAmplitudes, ReadAmplitudes)/Gen 5d
  7f SCF=(maxcycles=300) Integral(NoXCTest) MaxDisk=500GB Pop=Regular P
 seudo=Read Guess=Read IOp(5/15=2)
 ----------------------------------------------------------------------

 ---
 TiO
 ---
 Symbolic Z-matrix:
 Charge =  0 Multiplicity = 3

                         Standard orientation:
 ---------------------------------------------------------------------
 Center     Atomic      Atomic             Coordinates (Angstroms)
 Number     Number       Type             X           Y           Z
 ---------------------------------------------------------------------
      1         22           0        0.000000    0.000000    0.426667
      2          8           0        0.000000    0.000000   -1.173333
 ---------------------------------------------------------------------

 SCF Done:  E(ROHF) =  -73.5345350678     A.U. after   22 cycles
 E2 =    -0.7441287921D+00 EUMP2 =    -0.74278663859961D+02
 CCSD(T)
 CCSD(T)= -0.74308531302D+02

 Unable to determine electronic state:  an orbital has unidentified symmetry.
 Alpha  occ. eigenvalues --   -3.03886  -1.90500  -1.90500  -1.89472  -1.16526
 Alpha  occ. eigenvalues --   -0.46693  -0.45629  -0.45047  -0.45047  -0.26434
 Alpha virt. eigenvalues --    0.00407   0.00407   0.01561   0.02573   0.04136
 Alpha virt. eigenvalues --    0.04136   0.04817   0.04960   0.05184   0.05873
 Alpha virt. eigenvalues --    0.05873   0.06803   0.10846   0.11182   0.13836

 Mulliken charges and spin densities:
               1          2
     1  Ti   0.903292   1.998365
     2  O   -0.903292   0.001635
 Sum of Mulliken charges =   0.00000   2.00000

 Dipole moment (field-independent basis, Debye):
    X=              0.0000    Y=              0.0000    Z=              4.2384  Tot=              4.2384
 Quadrupole moment (field-independent basis, Debye-Ang):
   XX=            -21.4107   YY=            -21.4107   ZZ=            -28.8713
   XY=              0.0000   XZ=              0.0000   YZ=              0.0000

 \\#P ROCCSD(T)=(maxcyc=150, Full, SaveAmplitudes, ReadAmplitudes)/Gen
 .2640113\CCSD(T)=-74.3085313\RMSD=1.764e-09\PG=C*V [C*(O1Ti1)]\\@
 Normal termination of Gaussian 16 at Mon Mar 12 14:22:17 2018.
