 Gaussian 16, Revision A.03,
 Gaussian 16:  ES64L-G16RevA.03 25-Dec-2016

 ----------------------------------------------------------------------
 #P ROCCSD(T)=(maxcyc=150, Full, SaveAmplitudes, ReadAmplitudes)/Gen 5d
  7f SCF=(maxcycles=300) Integral(NoXCTest) MaxDisk=500GB Pop=Regular P
 seudo=Read Guess=Read
 ----------------------------------------------------------------------

 ---
 TiO
 ---
 Symbolic Z-matrix:
 Charge =  0 Multiplicity = 3

                         Standard orientation:
 ---------------------------------------------------------------------
 Center     Atomic      Atomic             Coordinates (Angstroms)
 Number     Number       Type             X           Y           Z
 ---------------------------------------------------------------------
      1         22           0        0.000000    0.000000    0.346667
      2          8           0        0.000000    0.000000   -0.953333
 ---------------------------------------------------------------------

 SCF Done:  E(ROHF) =  -73.4222244752     A.U. after   22 cycles
 E2 =    -0.7732431286D+00 EUMP2 =    -0.74195467603762D+02
 CCSD(T)
 CCSD(T)= -0.74216968984D+02

 Unable to determine electronic state:  an orbital has unidentified symmetry.
 Alpha  occ. eigenvalues --   -2.97021  -1.95252  -1.81974  -1.81974  -1.13653
 Alpha  occ. eigenvalues --   -0.58909  -0.58909  -0.52327  -0.35891  -0.21786
 Alpha virt. eigenvalues --    0.01156   0.01156   0.02122   0.02316   0.03795
 Alpha virt. eigenvalues --    0.03795   0.03808   0.03849   0.03861   0.04648
 Alpha virt. eigenvalues --    0.04648   0.07242   0.10338   0.10688   0.11248

 Mulliken charges and spin densities:
               1          2
     1  Ti   0.852878   1.980276
     2  O   -0.852878   0.019724
 Sum of Mulliken charges =  -0.00000   2.00000

 Dipole moment (field-independent basis, Debye):
    X=              0.0000    Y=              0.0000    Z=              0.7158  Tot=              0.7158
 Quadrupole moment (field-independent basis, Debye-Ang):
   XX=            -21.8933   YY=            -21.8933   ZZ=            -26.8348
   XY=              0.0000   XZ=              0.0000   YZ=              0.0000

 \\#P ROCCSD(T)=(maxcyc=150, Full, SaveAmplitudes, ReadAmplitudes)/Gen
 -0=-74.1954676\CCSD=-74.180108\CCSD(T)=-74.216969\RMSD=1.279e-09\PG=C*
 Normal termination of Gaussian 16 at Tue Mar 13 00:43:45 2018.
