 Gaussian 16, Revision A.03,
 Gaussian 16:  ES64L-G16RevA.03 25-Dec-2016

 ----------------------------------------------------------------------
 #P ROCCSD(T)=(maxcyc=150, Window=(6,0), SaveAmplitudes, ReadAmplitudes
 )/Gen 5d 7f SCF=(maxcycles=300) Integral(NoXCTest, DKHSO) MaxDisk=500G
 B Pop=Regular Guess=Read IOp(5/15=2)
 ----------------------------------------------------------------------

 ---
 MnH
 ---
 Symbolic Z-matrix:
 Charge =  0 Multiplicity = 7

                         Standard orientation:
 ---------------------------------------------------------------------
 Center     Atomic      Atomic             Coordinates (Angstroms)
 Number     Number       Type             X           Y           Z
 ---------------------------------------------------------------------
      1         25           0        0.000000    0.000000    0.061538
      2          1           0        0.000000    0.000000   -1.538462
 ---------------------------------------------------------------------

 SCF Done:  E(ROHF) =  -1157.93976021     A.U. after   19 cycles
 E2 =    -0.5597529823D+00 EUMP2 =    -0.11584995131942D+04
 CCSD(T)
 CCSD(T)= -0.11585148277D+04

 The electronic state is 7-SG.
 Alpha  occ. eigenvalues -- -242.49604 -29.60035 -24.95486 -24.95486 -24.95389
 Alpha  occ. eigenvalues --   -4.08963  -2.74225  -2.74225  -2.74126  -0.64054
 Alpha  occ. eigenvalues --   -0.63856  -0.63856  -0.63165  -0.63165  -0.41378
 Alpha  occ. eigenvalues --   -0.25713
 Alpha virt. eigenvalues --    0.01302   0.01302   0.02297   0.03161   0.05781
 Alpha virt. eigenvalues --    0.05781   0.08386   0.08491   0.08491   0.08956
 Alpha virt. eigenvalues --    0.08956   0.09583   0.14046   0.20211   0.22747

 Mulliken charges and spin densities:
               1          2
     1  Mn   0.436623   5.958590
     2  H   -0.436623   0.041410
 Sum of Mulliken charges =  -0.00000   6.00000

 Dipole moment (field-independent basis, Debye):
    X=              0.0000    Y=              0.0000    Z=              0.9420  Tot=              0.9420
 Quadrupole moment (field-independent basis, Debye-Ang):
   XX=            -16.3926   YY=            -16.3926   ZZ=            -26.2608
   XY=              0.0000   XZ=              0.0000   YZ=              0.0000

 1\1\GINC-C504-081\SP\ROCCSD(T)-RW\Gen\H1Mn1(7)\AANNABE\26-Feb-2018\0\\
 #P ROCCSD(T)=(maxcyc=150, Window=(6,0), SaveAmplitudes, ReadAmplitudes
 )/Gen 5d 7f SCF=(maxcycles=300) Integral(NoXCTest, DKHSO) MaxDisk=500G
 B Pop=Regular Guess=Read IOp(5/15=2)\\MnH\\0,7\Mn,0,0.,0.,0.\H,0,0.,0.
 ,1.6\\Version=ES64L-G16RevA.03\State=7-SG\HF=-1157.9397602\MP2=-1158.4
 995132\MP3=-1158.4926337\PUHF=-1157.9397602\PMP2-0=-1158.4995132\MP4SD
 Q=-1158.5000909\CCSD=-1158.500108\CCSD(T)=-1158.5148277\RMSD=6.427e-09
 \PG=C*V [C*(H1Mn1)]\\@

 Normal termination of Gaussian 16 at Mon Feb 26 00:13:11 2018.
