 Gaussian 16, Revision A.03,
 Gaussian 16:  ES64L-G16RevA.03 25-Dec-2016

 ----------------------------------------------------------------------
 #P ROCCSD(T)=(MaxCyc=150, Full)/Gen SCF=(maxcycle=400) Pseudo=Read Int
 egral(NoXCTest) Pop=Regular MaxDisk=500GB Guess=Read IOp(5/15=2)
 ----------------------------------------------------------------------

 ---
 NiO
 ---
 Symbolic Z-matrix:
 Charge =  0 Multiplicity = 3

                         Standard orientation:
 ---------------------------------------------------------------------
 Center     Atomic      Atomic             Coordinates (Angstroms)
 Number     Number       Type             X           Y           Z
 ---------------------------------------------------------------------
      1         28           0        0.000000    0.000000    0.288889
      2          8           0        0.000000    0.000000   -1.011111
 ---------------------------------------------------------------------

 SCF Done:  E(ROHF) =  -184.564786982     A.U. after   18 cycles
 E2 =    -0.1319807467D+01 EUMP2 =    -0.18588459444896D+03
 CCSD(T)
 CCSD(T)= -0.18585093638D+03

 The electronic state is 3-SG.
 Alpha  occ. eigenvalues --   -5.21500  -3.51779  -3.40549  -3.40549  -1.30497
 Alpha  occ. eigenvalues --   -0.83239  -0.83239  -0.72229  -0.68516  -0.68516
 Alpha  occ. eigenvalues --   -0.45153  -0.45153  -0.35900
 Alpha virt. eigenvalues --   -0.01409   0.02493   0.02493   0.03349   0.03682
 Alpha virt. eigenvalues --    0.07594   0.07594   0.07832   0.08296   0.08296
 Alpha virt. eigenvalues --    0.09680   0.09680   0.12512   0.16367   0.22515

 Mulliken charges and spin densities:
               1          2
     1  Ni   0.738178   1.681646
     2  O   -0.738178   0.318354
 Sum of Mulliken charges =  -0.00000   2.00000

 Dipole moment (field-independent basis, Debye):
    X=              0.0000    Y=              0.0000    Z=              4.8997  Tot=              4.8997
 Quadrupole moment (field-independent basis, Debye-Ang):
   XX=            -18.5576   YY=            -18.5576   ZZ=            -18.8278
   XY=              0.0000   XZ=              0.0000   YZ=              0.0000

 \\#P ROCCSD(T)=(MaxCyc=150, Full)/Gen SCF=(maxcycle=400) Pseudo=Read I
 P2-0=-185.8845944\MP4SDQ=-185.8408644\CCSD=-185.7941349\CCSD(T)=-185.8
 Normal termination of Gaussian 16 at Mon Mar 26 20:26:26 2018.
