 Gaussian 16, Revision A.03,
 Gaussian 16:  ES64L-G16RevA.03 25-Dec-2016

 ----------------------------------------------------------------------
 #P ROCCSD(T)=(MaxCyc=150, Full)/Gen SCF=(maxcycle=400) Pseudo=Read Int
 egral(NoXCTest) Pop=Regular MaxDisk=500GB Guess=Read IOp(5/15=2)
 ----------------------------------------------------------------------

 ---
 NiO
 ---
 Symbolic Z-matrix:
 Charge =  0 Multiplicity = 3

                         Standard orientation:
 ---------------------------------------------------------------------
 Center     Atomic      Atomic             Coordinates (Angstroms)
 Number     Number       Type             X           Y           Z
 ---------------------------------------------------------------------
      1         28           0        0.000000    0.000000    0.288889
      2          8           0        0.000000    0.000000   -1.011111
 ---------------------------------------------------------------------

 SCF Done:  E(ROHF) =  -184.560631199     A.U. after   22 cycles
 E2 =    -0.1261738341D+01 EUMP2 =    -0.18582236954009D+03
 CCSD(T)
 CCSD(T)= -0.18579111217D+03

 The electronic state is 3-SG.
 Alpha  occ. eigenvalues --   -5.21503  -3.51810  -3.40568  -3.40568  -1.30546
 Alpha  occ. eigenvalues --   -0.83235  -0.83235  -0.72236  -0.68513  -0.68513
 Alpha  occ. eigenvalues --   -0.45144  -0.45144  -0.35914
 Alpha virt. eigenvalues --   -0.01404   0.02848   0.02848   0.03748   0.03943
 Alpha virt. eigenvalues --    0.09562   0.09562   0.11517   0.12724   0.12724
 Alpha virt. eigenvalues --    0.13009   0.13009   0.14621   0.17866   0.26133

 Mulliken charges and spin densities:
               1          2
     1  Ni   0.954416   1.672249
     2  O   -0.954416   0.327751
 Sum of Mulliken charges =  -0.00000   2.00000

 Dipole moment (field-independent basis, Debye):
    X=              0.0000    Y=              0.0000    Z=              4.9129  Tot=              4.9129
 Quadrupole moment (field-independent basis, Debye-Ang):
   XX=            -18.5616   YY=            -18.5616   ZZ=            -18.8418
   XY=              0.0000   XZ=              0.0000   YZ=              0.0000

 \\#P ROCCSD(T)=(MaxCyc=150, Full)/Gen SCF=(maxcycle=400) Pseudo=Read I
 PMP2-0=-185.8223695\MP4SDQ=-185.7845614\CCSD=-185.7369453\CCSD(T)=-185
 Normal termination of Gaussian 16 at Mon Mar 26 18:05:45 2018.
