 Gaussian 16, Revision A.03,
 Gaussian 16:  ES64L-G16RevA.03 25-Dec-2016

 ----------------------------------------------------------------------
 #P ROCCSD(T)=(MaxCyc=150, Full)/Gen SCF=(maxcycle=400, vshift=200) Pse
 udo=Read Integral(NoXCTest) Pop=Regular MaxDisk=500GB Guess=Read
 ----------------------------------------------------------------------

 ---
 NiO
 ---
 Symbolic Z-matrix:
 Charge =  0 Multiplicity = 3

                         Standard orientation:
 ---------------------------------------------------------------------
 Center     Atomic      Atomic             Coordinates (Angstroms)
 Number     Number       Type             X           Y           Z
 ---------------------------------------------------------------------
      1         28           0        0.000000    0.000000    0.288889
      2          8           0        0.000000    0.000000   -1.011111
 ---------------------------------------------------------------------

 SCF Done:  E(ROHF) =  -183.891487280     A.U. after   27 cycles
 E2 =    -0.1250985437D+01 EUMP2 =    -0.18514247271743D+03
 CCSD(T)
 CCSD(T)= -0.18511215206D+03

 The electronic state is 3-SG.
 Alpha  occ. eigenvalues --   -5.18181  -3.51456  -3.40129  -3.40129  -1.30629
 Alpha  occ. eigenvalues --   -0.83398  -0.83398  -0.72252  -0.68609  -0.68609
 Alpha  occ. eigenvalues --   -0.45317  -0.45317  -0.35808
 Alpha virt. eigenvalues --   -0.01261   0.02852   0.02852   0.03810   0.03950
 Alpha virt. eigenvalues --    0.09582   0.09582   0.11540   0.12723   0.12723
 Alpha virt. eigenvalues --    0.12996   0.12996   0.14590   0.17982   0.26114

 Mulliken charges and spin densities:
               1          2
     1  Ni   0.952169   1.670410
     2  O   -0.952169   0.329590
 Sum of Mulliken charges =  -0.00000   2.00000

 Dipole moment (field-independent basis, Debye):
    X=              0.0000    Y=              0.0000    Z=              4.8398  Tot=              4.8398
 Quadrupole moment (field-independent basis, Debye-Ang):
   XX=            -18.6313   YY=            -18.6313   ZZ=            -18.9375
   XY=              0.0000   XZ=              0.0000   YZ=              0.0000

 \\#P ROCCSD(T)=(MaxCyc=150, Full)/Gen SCF=(maxcycle=400, vshift=200) P
 PMP2-0=-185.1424727\MP4SDQ=-185.1047835\CCSD=-185.0583418\CCSD(T)=-185
 Normal termination of Gaussian 16 at Fri May 11 03:29:09 2018.
