 Gaussian 16, Revision A.03,
 Gaussian 16:  ES64L-G16RevA.03 25-Dec-2016

 ----------------------------------------------------------------------
 #P ROCCSD(T)=(MaxCyc=150, Full)/Gen SCF=(maxcycle=400, vshift=200) Pse
 udo=Read Integral(NoXCTest) Pop=Regular MaxDisk=500GB Guess=Read
 ----------------------------------------------------------------------

 ---
 NiO
 ---
 Symbolic Z-matrix:
 Charge =  0 Multiplicity = 3

                         Standard orientation:
 ---------------------------------------------------------------------
 Center     Atomic      Atomic             Coordinates (Angstroms)
 Number     Number       Type             X           Y           Z
 ---------------------------------------------------------------------
      1         28           0        0.000000    0.000000    0.288889
      2          8           0        0.000000    0.000000   -1.011111
 ---------------------------------------------------------------------

 SCF Done:  E(ROHF) =  -183.895576811     A.U. after   20 cycles
 E2 =    -0.1309104521D+01 EUMP2 =    -0.18520468133242D+03
 CCSD(T)
 CCSD(T)= -0.18517203426D+03

 The electronic state is 3-SG.
 Alpha  occ. eigenvalues --   -5.18175  -3.51429  -3.40115  -3.40115  -1.30579
 Alpha  occ. eigenvalues --   -0.83402  -0.83402  -0.72246  -0.68612  -0.68612
 Alpha  occ. eigenvalues --   -0.45326  -0.45326  -0.35794
 Alpha virt. eigenvalues --   -0.01269   0.02499   0.02499   0.03387   0.03713
 Alpha virt. eigenvalues --    0.07604   0.07604   0.07843   0.08296   0.08296
 Alpha virt. eigenvalues --    0.09672   0.09672   0.12485   0.16477   0.22488

 Mulliken charges and spin densities:
               1          2
     1  Ni   0.736158   1.679337
     2  O   -0.736158   0.320663
 Sum of Mulliken charges =  -0.00000   2.00000

 Dipole moment (field-independent basis, Debye):
    X=              0.0000    Y=              0.0000    Z=              4.8266  Tot=              4.8266
 Quadrupole moment (field-independent basis, Debye-Ang):
   XX=            -18.6273   YY=            -18.6273   ZZ=            -18.9236
   XY=              0.0000   XZ=              0.0000   YZ=              0.0000

 \\#P ROCCSD(T)=(MaxCyc=150, Full)/Gen SCF=(maxcycle=400, vshift=200) P
 PMP2-0=-185.2046813\MP4SDQ=-185.1611551\CCSD=-185.1155985\CCSD(T)=-185
 Normal termination of Gaussian 16 at Fri May 11 04:36:12 2018.
