 Gaussian 16, Revision A.03,
 Gaussian 16:  ES64L-G16RevA.03 25-Dec-2016

 ----------------------------------------------------------------------
 #P ROCCSD(T)=(maxcyc=150, Full, SaveAmplitudes, ReadAmplitudes)/Gen 5d
  7f SCF=(maxcycles=300, VShift=400) Integral(NoXCTest) MaxDisk=500GB P
 op=Full Pseudo=Read Guess=Read IOp(5/15=2)
 ----------------------------------------------------------------------

 ---
 CrO
 ---
 Symbolic Z-matrix:
 Charge =  0 Multiplicity = 5

                         Standard orientation:
 ---------------------------------------------------------------------
 Center     Atomic      Atomic             Coordinates (Angstroms)
 Number     Number       Type             X           Y           Z
 ---------------------------------------------------------------------
      1         24           0        0.000000    0.000000    0.450000
      2          8           0        0.000000    0.000000   -1.350000
 ---------------------------------------------------------------------

 SCF Done:  E(ROHF) =  -102.008992884     A.U. after   94 cycles
 E2 =    -0.8596055782D+00 EUMP2 =    -0.10286859846235D+03
 CCSD(T)
 CCSD(T)= -0.10292102739D+03

 Unable to determine electronic state:  an orbital has unidentified symmetry.
 Alpha  occ. eigenvalues --   -3.76819  -2.48577  -2.43609  -2.42779  -1.08834
 Alpha  occ. eigenvalues --   -0.57610  -0.56175  -0.55460  -0.52229  -0.34298
 Alpha  occ. eigenvalues --   -0.32994  -0.32681
 Alpha virt. eigenvalues --   -0.04569   0.00745   0.01377   0.01785   0.03721
 Alpha virt. eigenvalues --    0.05020   0.06209   0.07415   0.07422   0.07631
 Alpha virt. eigenvalues --    0.08359   0.08726   0.12922   0.13962   0.15516

 Mulliken charges and spin densities:
               1          2
     1  Cr   1.169648   3.942341
     2  O   -1.169648   0.057659
 Sum of Mulliken charges =  -0.00000   4.00000

 Dipole moment (field-independent basis, Debye):
    X=              0.0000    Y=              0.0000    Z=              9.6971  Tot=              9.6971
 Quadrupole moment (field-independent basis, Debye-Ang):
   XX=            -19.5449   YY=            -18.7318   ZZ=            -23.9566
   XY=              0.0000   XZ=              0.0000   YZ=              0.0000

 \\#P ROCCSD(T)=(maxcyc=150, Full, SaveAmplitudes, ReadAmplitudes)/Gen
 79425\CCSD=-102.8685695\CCSD(T)=-102.9210274\RMSD=9.621e-09\PG=C*V [C*
 Normal termination of Gaussian 16 at Sun Mar 18 16:47:52 2018.
