 Gaussian 16, Revision A.03,
 Gaussian 16:  ES64L-G16RevA.03 25-Dec-2016

 ----------------------------------------------------------------------
 #P ROCCSD(T)=(MaxCyc=150, Full)/Gen SCF=(maxcycle=400, vshift=200) Pse
 udo=Read Integral(NoXCTest) Pop=Regular MaxDisk=500GB Guess=Read IOp(5
 /15=2)
 ----------------------------------------------------------------------

 ---
 FeH
 ---
 Symbolic Z-matrix:
 Charge =  0 Multiplicity = 4

                         Standard orientation:
 ---------------------------------------------------------------------
 Center     Atomic      Atomic             Coordinates (Angstroms)
 Number     Number       Type             X           Y           Z
 ---------------------------------------------------------------------
      1         26           0        0.000000    0.000000    0.044444
      2          1           0        0.000000    0.000000   -1.155556
 ---------------------------------------------------------------------

 SCF Done:  E(ROHF) =  -123.063475853     A.U. after   22 cycles
 E2 =    -0.8149855474D+00 EUMP2 =    -0.12387846140022D+03
 CCSD(T)
 CCSD(T)= -0.12387149874D+03

 Unable to determine electronic state:  partially filled degenerate orbitals.
 Alpha  occ. eigenvalues --   -4.29559  -2.83703  -2.81308  -2.81308  -0.55405
 Alpha  occ. eigenvalues --   -0.55405  -0.54985  -0.52903  -0.48048  -0.30462
 Alpha virt. eigenvalues --    0.00451   0.02254   0.02254   0.02600   0.04615
 Alpha virt. eigenvalues --    0.06262   0.06802   0.06802   0.06860   0.06871
 Alpha virt. eigenvalues --    0.07457   0.07457   0.09234   0.17188   0.18182

 Mulliken charges and spin densities:
               1          2
     1  Fe   0.314612   2.991255
     2  H   -0.314612   0.008745
 Sum of Mulliken charges =  -0.00000   3.00000

 Dipole moment (field-independent basis, Debye):
    X=              0.0000    Y=              0.0000    Z=              3.0503  Tot=              3.0503
 Quadrupole moment (field-independent basis, Debye-Ang):
   XX=            -16.7153   YY=            -16.7153   ZZ=            -15.9457
   XY=              0.0000   XZ=              0.0000   YZ=              0.0000

 \\#P ROCCSD(T)=(MaxCyc=150, Full)/Gen SCF=(maxcycle=400, vshift=200) P
 \PMP2-0=-123.8784614\MP4SDQ=-123.8516921\CCSD=-123.840795\CCSD(T)=-123
 Normal termination of Gaussian 16 at Sun Apr 22 23:17:33 2018.
