 Gaussian 16, Revision A.03,
 Gaussian 16:  ES64L-G16RevA.03 25-Dec-2016

 ----------------------------------------------------------------------
 #P ROCCSD(T)=(MaxCyc=150, Full)/Gen SCF=(maxcycle=400, vshift=200) Pse
 udo=Read Integral(NoXCTest) Pop=Regular MaxDisk=500GB Guess=Read IOp(5
 /15=2)
 ----------------------------------------------------------------------

 ---
 FeH
 ---
 Symbolic Z-matrix:
 Charge =  0 Multiplicity = 4

                         Standard orientation:
 ---------------------------------------------------------------------
 Center     Atomic      Atomic             Coordinates (Angstroms)
 Number     Number       Type             X           Y           Z
 ---------------------------------------------------------------------
      1         26           0        0.000000    0.000000    0.044444
      2          1           0        0.000000    0.000000   -1.155556
 ---------------------------------------------------------------------

 SCF Done:  E(ROHF) =  -123.063681483     A.U. after   17 cycles
 E2 =    -0.8292578105D+00 EUMP2 =    -0.12389293929359D+03
 CCSD(T)
 CCSD(T)= -0.12388398901D+03

 Unable to determine electronic state:  partially filled degenerate orbitals.
 Alpha  occ. eigenvalues --   -4.29557  -2.83699  -2.81305  -2.81305  -0.55402
 Alpha  occ. eigenvalues --   -0.55402  -0.54986  -0.52899  -0.48050  -0.30462
 Alpha virt. eigenvalues --    0.00392   0.02191   0.02191   0.02329   0.03951
 Alpha virt. eigenvalues --    0.05927   0.06258   0.06258   0.06284   0.06293
 Alpha virt. eigenvalues --    0.07132   0.07132   0.08114   0.12936   0.17437

 Mulliken charges and spin densities:
               1          2
     1  Fe   0.297660   2.989294
     2  H   -0.297660   0.010706
 Sum of Mulliken charges =  -0.00000   3.00000

 Dipole moment (field-independent basis, Debye):
    X=              0.0000    Y=              0.0000    Z=              3.0505  Tot=              3.0505
 Quadrupole moment (field-independent basis, Debye-Ang):
   XX=            -16.7137   YY=            -16.7137   ZZ=            -15.9466
   XY=              0.0000   XZ=              0.0000   YZ=              0.0000

 \\#P ROCCSD(T)=(MaxCyc=150, Full)/Gen SCF=(maxcycle=400, vshift=200) P
 \PMP2-0=-123.8929393\MP4SDQ=-123.8635491\CCSD=-123.8528056\CCSD(T)=-12
 Normal termination of Gaussian 16 at Sun Apr 22 23:57:07 2018.
