 Gaussian 16, Revision A.03,
 Gaussian 16:  ES64L-G16RevA.03 25-Dec-2016

 ----------------------------------------------------------------------
 #P ROCCSD(T)=(MaxCyc=150, Full)/Gen SCF=(maxcycle=400, vshift=200) Pse
 udo=Read Integral(NoXCTest) Pop=Regular MaxDisk=500GB Guess=Read IOp(5
 /15=2)
 ----------------------------------------------------------------------

 ---
 FeH
 ---
 Symbolic Z-matrix:
 Charge =  0 Multiplicity = 4

                         Standard orientation:
 ---------------------------------------------------------------------
 Center     Atomic      Atomic             Coordinates (Angstroms)
 Number     Number       Type             X           Y           Z
 ---------------------------------------------------------------------
      1         26           0        0.000000    0.000000    0.044444
      2          1           0        0.000000    0.000000   -1.155556
 ---------------------------------------------------------------------

 SCF Done:  E(ROHF) =  -123.062293106     A.U. after   33 cycles
 E2 =    -0.7794579897D+00 EUMP2 =    -0.12384175109602D+03
 CCSD(T)
 CCSD(T)= -0.12383669328D+03

 Unable to determine electronic state:  an orbital has unidentified symmetry.
 Alpha  occ. eigenvalues --   -4.29565  -2.83716  -2.81319  -2.81319  -0.55406
 Alpha  occ. eigenvalues --   -0.55406  -0.54981  -0.52903  -0.48046  -0.30463
 Alpha virt. eigenvalues --    0.00483   0.02460   0.02460   0.02853   0.04759
 Alpha virt. eigenvalues --    0.08238   0.08238   0.09562   0.10250   0.10250
 Alpha virt. eigenvalues --    0.10333   0.10367   0.10535   0.16491   0.25148

 Mulliken charges and spin densities:
               1          2
     1  Fe   0.303997   2.991433
     2  H   -0.303997   0.008567
 Sum of Mulliken charges =  -0.00000   3.00000

 Dipole moment (field-independent basis, Debye):
    X=              0.0000    Y=              0.0000    Z=              3.0529  Tot=              3.0529
 Quadrupole moment (field-independent basis, Debye-Ang):
   XX=            -16.7230   YY=            -16.7230   ZZ=            -15.9424
   XY=              0.0000   XZ=              0.0000   YZ=              0.0000

 \\#P ROCCSD(T)=(MaxCyc=150, Full)/Gen SCF=(maxcycle=400, vshift=200) P
 \PMP2-0=-123.8417511\MP4SDQ=-123.8185424\CCSD=-123.8073498\CCSD(T)=-12
 Normal termination of Gaussian 16 at Sun Apr 22 23:02:30 2018.
