 Gaussian 16, Revision A.03,
 Gaussian 16:  ES64L-G16RevA.03 25-Dec-2016

 ----------------------------------------------------------------------
 #P ROCCSD(T)=(maxcyc=150, Full, SaveAmplitudes, ReadAmplitudes)/Gen 5d
  7f SCF=(maxcycles=300) Integral(NoXCTest) MaxDisk=500GB Pop=Regular P
 seudo=Read Guess=Read IOp(5/15=2)
 ----------------------------------------------------------------------

 ---
 ScO
 ---
 Symbolic Z-matrix:
 Charge =  0 Multiplicity = 2

                         Standard orientation:
 ---------------------------------------------------------------------
 Center     Atomic      Atomic             Coordinates (Angstroms)
 Number     Number       Type             X           Y           Z
 ---------------------------------------------------------------------
      1         21           0        0.000000    0.000000    0.413793
      2          8           0        0.000000    0.000000   -1.086207
 ---------------------------------------------------------------------

 SCF Done:  E(ROHF) =  -62.0615820350     A.U. after   19 cycles
 E2 =    -0.6819144071D+00 EUMP2 =    -0.62743496442149D+02
 CCSD(T)
 CCSD(T)= -0.62769820682D+02

 The electronic state is 2-SG.
 Alpha  occ. eigenvalues --   -2.64259  -1.68290  -1.58055  -1.58055  -1.10649
 Alpha  occ. eigenvalues --   -0.47755  -0.47755  -0.44913  -0.22685
 Alpha virt. eigenvalues --    0.00625   0.00625   0.01925   0.02296   0.03708
 Alpha virt. eigenvalues --    0.03708   0.03858   0.03858   0.04126   0.04328
 Alpha virt. eigenvalues --    0.04328   0.06612   0.09817   0.09817   0.10841

 Mulliken charges and spin densities:
               1          2
     1  Sc   1.288091   0.978551
     2  O   -1.288091   0.021449
 Sum of Mulliken charges =  -0.00000   1.00000

 Dipole moment (field-independent basis, Debye):
    X=              0.0000    Y=              0.0000    Z=              2.8323  Tot=              2.8323
 Quadrupole moment (field-independent basis, Debye-Ang):
   XX=            -21.9350   YY=            -21.9350   ZZ=            -30.7987
   XY=              0.0000   XZ=              0.0000   YZ=              0.0000

 \\#P ROCCSD(T)=(maxcyc=150, Full, SaveAmplitudes, ReadAmplitudes)/Gen
 \CCSD=-62.7342963\CCSD(T)=-62.7698207\RMSD=1.258e-09\PG=C*V [C*(O1Sc1)
 Normal termination of Gaussian 16 at Wed Feb 21 01:14:36 2018.
