 Gaussian 16, Revision A.03,
 Gaussian 16:  ES64L-G16RevA.03 25-Dec-2016

 ----------------------------------------------------------------------
 #P ROCCSD(T)=(maxcyc=150, Full, SaveAmplitudes, ReadAmplitudes)/Gen 5d
  7f SCF=(maxcycles=300) Integral(NoXCTest) MaxDisk=500GB Pop=Regular P
 seudo=Read Guess=Read
 ----------------------------------------------------------------------

 ---
 MnO
 ---
 Symbolic Z-matrix:
 Charge =  0 Multiplicity = 6

                         Standard orientation:
 ---------------------------------------------------------------------
 Center     Atomic      Atomic             Coordinates (Angstroms)
 Number     Number       Type             X           Y           Z
 ---------------------------------------------------------------------
      1         25           0        0.000000    0.000000    0.363636
      2          8           0        0.000000    0.000000   -1.136364
 ---------------------------------------------------------------------

 SCF Done:  E(ROHF) =  -119.328527967     A.U. after   23 cycles
 E2 =    -0.9814388712D+00 EUMP2 =    -0.12030996683826D+03
 CCSD(T)
 CCSD(T)= -0.12032391035D+03

 The electronic state is 6-SG.
 Alpha  occ. eigenvalues --   -4.09362  -2.75513  -2.75513  -2.73170  -1.19630
 Alpha  occ. eigenvalues --   -0.67804  -0.67804  -0.63643  -0.63643  -0.53352
 Alpha  occ. eigenvalues --   -0.38783  -0.38783  -0.33592
 Alpha virt. eigenvalues --   -0.00702   0.01747   0.01747   0.02999   0.03420
 Alpha virt. eigenvalues --    0.05892   0.05892   0.05894   0.05894   0.06226
 Alpha virt. eigenvalues --    0.07060   0.07060   0.11910   0.13423   0.17760

 Mulliken charges and spin densities:
               1          2
     1  Mn   1.160454   4.822724
     2  O   -1.160454   0.177276
 Sum of Mulliken charges =  -0.00000   5.00000

 Dipole moment (field-independent basis, Debye):
    X=              0.0000    Y=              0.0000    Z=              6.2520  Tot=              6.2520
 Quadrupole moment (field-independent basis, Debye-Ang):
   XX=            -19.2769   YY=            -19.2769   ZZ=            -22.7335
   XY=              0.0000   XZ=              0.0000   YZ=              0.0000

 \\#P ROCCSD(T)=(maxcyc=150, Full, SaveAmplitudes, ReadAmplitudes)/Gen
 .328528\PMP2-0=-120.3099668\CCSD=-120.2791661\CCSD(T)=-120.3239103\RMS
 Normal termination of Gaussian 16 at Wed Mar 14 04:06:06 2018.
