 Gaussian 16, Revision A.03,
 Gaussian 16:  ES64L-G16RevA.03 25-Dec-2016

 ----------------------------------------------------------------------
 #P ROCCSD(T)=(MaxCyc=150, Window=(7,0))/Gen SCF=(maxcycle=400) Integra
 l(DKHSO, NoXCTest) Pop=Regular MaxDisk=500GB Guess=Read IOp(5/15=2)
 ----------------------------------------------------------------------

 ---
 CuO
 ---
 Symbolic Z-matrix:
 Charge =  0 Multiplicity = 2

                         Standard orientation:
 ---------------------------------------------------------------------
 Center     Atomic      Atomic             Coordinates (Angstroms)
 Number     Number       Type             X           Y           Z
 ---------------------------------------------------------------------
      1         29           0        0.000000    0.000000    0.367568
      2          8           0        0.000000    0.000000   -1.332432
 ---------------------------------------------------------------------

 SCF Done:  E(ROHF) =  -1728.03980486     A.U. after    1 cycles
 E2 =    -0.1280174006D+01 EUMP2 =    -0.17293199788655D+04
 CCSD(T)
 CCSD(T)= -0.17292359109D+04

 Unable to determine electronic state:  an orbital has unidentified symmetry.
 Alpha  occ. eigenvalues -- -332.52594 -41.70272 -35.84417 -35.84263 -35.84025
 Alpha  occ. eigenvalues --  -20.53384  -5.19978  -3.40982  -3.40446  -3.40161
 Alpha  occ. eigenvalues --   -1.22626  -0.58361  -0.55214  -0.54663  -0.52141
 Alpha  occ. eigenvalues --   -0.52139  -0.47809  -0.41847  -0.40151
 Alpha virt. eigenvalues --   -0.01126   0.02873   0.03033   0.04012   0.04707
 Alpha virt. eigenvalues --    0.10438   0.10784   0.13666   0.19414   0.19587
 Alpha virt. eigenvalues --    0.19612   0.20869   0.21611   0.22676   0.26051

 Mulliken charges and spin densities:
               1          2
     1  Cu   0.828306   0.020463
     2  O   -0.828306   0.979537
 Sum of Mulliken charges =  -0.00000   1.00000

 Dipole moment (field-independent basis, Debye):
    X=              0.0000    Y=              0.0000    Z=              5.6179  Tot=              5.6179
 Quadrupole moment (field-independent basis, Debye-Ang):
   XX=            -17.4895   YY=            -15.9384   ZZ=            -20.4295
   XY=              0.0000   XZ=              0.0000   YZ=              0.0000

 1\1\GINC-C501-073\SP\ROCCSD(T)-RW\Gen\Cu1O1(2)\GWANG18\26-Mar-2018\0\\
 #P ROCCSD(T)=(MaxCyc=150, Window=(7,0))/Gen SCF=(maxcycle=400) Integra
 l(DKHSO, NoXCTest) Pop=Regular MaxDisk=500GB Guess=Read IOp(5/15=2)\\C
 uO\\0,2\Cu,0,0.,0.,0.\O,0,0.,0.,1.7\\Version=ES64L-G16RevA.03\HF=-1728
 .0398049\MP2=-1729.3199789\MP3=-1729.0886923\PUHF=-1728.0398049\PMP2-0
 =-1729.3199789\MP4SDQ=-1729.2767755\CCSD=-1729.1900942\CCSD(T)=-1729.2
 359109\RMSD=1.531e-09\PG=C*V [C*(O1Cu1)]\\@

 Normal termination of Gaussian 16 at Mon Mar 26 04:46:53 2018.
