 Gaussian 16, Revision A.03,
 Gaussian 16:  ES64L-G16RevA.03 25-Dec-2016

 ----------------------------------------------------------------------
 #P ROCCSD(T)=(MaxCyc=150, Full)/Gen SCF=(maxcycle=400) Pseudo=Read Int
 egral(NoXCTest) Pop=Regular MaxDisk=500GB Guess=Read IOp(5/15=2)
 ----------------------------------------------------------------------

 --
 Co
 --
 Symbolic Z-matrix:
 Charge =  0 Multiplicity = 4

                         Standard orientation:
 ---------------------------------------------------------------------
 Center     Atomic      Atomic             Coordinates (Angstroms)
 Number     Number       Type             X           Y           Z
 ---------------------------------------------------------------------
      1         27           0        0.000000    0.000000    0.000000
 ---------------------------------------------------------------------

 SCF Done:  E(ROHF) =  -144.678857354     A.U. after   17 cycles
 E2 =    -0.7926680015D+00 EUMP2 =    -0.14547152535579D+03
 CCSD(T)
 CCSD(T)= -0.14547520420D+03

 Unable to determine electronic state:  an orbital has unidentified symmetry.
 Alpha  occ. eigenvalues --   -4.80373  -3.24938  -3.24938  -3.24938  -0.72015
 Alpha  occ. eigenvalues --   -0.72015  -0.72015  -0.66965  -0.66965  -0.28175
 Alpha virt. eigenvalues --    0.02074   0.02074   0.02074   0.02337   0.06620
 Alpha virt. eigenvalues --    0.06620   0.06620   0.06700   0.06700   0.06700
 Alpha virt. eigenvalues --    0.06706   0.06706   0.11541   0.20955   0.20955

 Mulliken charges and spin densities:
               1          2
     1  Co  -0.000000   3.000000
 Sum of Mulliken charges =  -0.00000   3.00000

 Dipole moment (field-independent basis, Debye):
    X=              0.0000    Y=              0.0000    Z=              0.0000  Tot=              0.0000
 Quadrupole moment (field-independent basis, Debye-Ang):
   XX=            -17.2121   YY=            -17.2121   ZZ=            -17.2121
   XY=              0.0000   XZ=             -0.0000   YZ=              0.0000

 1\1\GINC-C430-122\SP\ROCCSD(T)-Full\Gen\Co1(4)\GWANG18\05-May-2018\0\\
 #P ROCCSD(T)=(MaxCyc=150, Full)/Gen SCF=(maxcycle=400) Pseudo=Read Int
 egral(NoXCTest) Pop=Regular MaxDisk=500GB Guess=Read IOp(5/15=2)\\Co\\
 0,4\Co,0,0.,0.,0.\\Version=ES64L-G16RevA.03\HF=-144.6788574\MP2=-145.4
 715254\MP3=-145.4396205\PUHF=-144.6788574\PMP2-0=-145.4715254\MP4SDQ=-
 145.455758\CCSD=-145.4516749\CCSD(T)=-145.4752042\RMSD=4.090e-09\PG=OH
  [O(Co1)]\\@

 Normal termination of Gaussian 16 at Sat May  5 21:52:10 2018.
