 Gaussian 16, Revision A.03,
 Gaussian 16:  ES64L-G16RevA.03 25-Dec-2016

 ----------------------------------------------------------------------
 #P ROCCSD(T)=(MaxCyc=150, Full)/Gen SCF=(maxcycle=400) Pseudo=Read Int
 egral(NoXCTest) Pop=Regular MaxDisk=500GB Guess=Read IOp(5/15=2)
 ----------------------------------------------------------------------

 --
 Co
 --
 Symbolic Z-matrix:
 Charge =  0 Multiplicity = 4

                         Standard orientation:
 ---------------------------------------------------------------------
 Center     Atomic      Atomic             Coordinates (Angstroms)
 Number     Number       Type             X           Y           Z
 ---------------------------------------------------------------------
      1         27           0        0.000000    0.000000    0.000000
 ---------------------------------------------------------------------

 SCF Done:  E(ROHF) =  -144.678656567     A.U. after   11 cycles
 E2 =    -0.7742339290D+00 EUMP2 =    -0.14545289049557D+03
 CCSD(T)
 CCSD(T)= -0.14545859717D+03

 Unable to determine electronic state:  an orbital has unidentified symmetry.
 Alpha  occ. eigenvalues --   -4.80375  -3.24939  -3.24939  -3.24939  -0.72017
 Alpha  occ. eigenvalues --   -0.72017  -0.72017  -0.66961  -0.66961  -0.28175
 Alpha virt. eigenvalues --    0.02116   0.02116   0.02116   0.02851   0.06879
 Alpha virt. eigenvalues --    0.06879   0.06879   0.07398   0.07398   0.07398
 Alpha virt. eigenvalues --    0.07407   0.07407   0.15208   0.23003   0.23003

 Mulliken charges and spin densities:
               1          2
     1  Co  -0.000000   3.000000
 Sum of Mulliken charges =  -0.00000   3.00000

 Dipole moment (field-independent basis, Debye):
    X=              0.0000    Y=              0.0000    Z=              0.0000  Tot=              0.0000
 Quadrupole moment (field-independent basis, Debye-Ang):
   XX=            -17.2128   YY=            -17.2128   ZZ=            -17.2128
   XY=              0.0000   XZ=             -0.0000   YZ=              0.0000

 1\1\GINC-C418-033\SP\ROCCSD(T)-Full\Gen\Co1(4)\GWANG18\02-Apr-2018\0\\
 #P ROCCSD(T)=(MaxCyc=150, Full)/Gen SCF=(maxcycle=400) Pseudo=Read Int
 egral(NoXCTest) Pop=Regular MaxDisk=500GB Guess=Read IOp(5/15=2)\\Co\\
 0,4\Co,0,0.,0.,0.\\Version=ES64L-G16RevA.03\HF=-144.6786566\MP2=-145.4
 528905\MP3=-145.4231416\PUHF=-144.6786566\PMP2-0=-145.4528905\MP4SDQ=-
 145.4397734\CCSD=-145.4355604\CCSD(T)=-145.4585972\RMSD=9.990e-09\PG=O
 H [O(Co1)]\\@

 Normal termination of Gaussian 16 at Mon Apr  2 15:09:29 2018.
