 Gaussian 16, Revision A.03,
 Gaussian 16:  ES64L-G16RevA.03 25-Dec-2016

 ----------------------------------------------------------------------
 #P ROHF/Gen SCF=(maxcycle=400) Pseudo=Read Integral(NoXCTest) Pop=Regu
 lar MaxDisk=500GB Guess=(Read, Permute) IOp(5/15=2)
 ----------------------------------------------------------------------

 --
 Co
 --
 Symbolic Z-matrix:
 Charge =  0 Multiplicity = 4

                         Standard orientation:
 ---------------------------------------------------------------------
 Center     Atomic      Atomic             Coordinates (Angstroms)
 Number     Number       Type             X           Y           Z
 ---------------------------------------------------------------------
      1         27           0        0.000000    0.000000    0.000000
 ---------------------------------------------------------------------

 SCF Done:  E(ROHF) =  -144.677704815     A.U. after    1 cycles

 Unable to determine electronic state:  an orbital has unidentified symmetry.
 Alpha  occ. eigenvalues --   -4.60621  -3.01102  -3.01102  -3.01102  -0.60554
 Alpha  occ. eigenvalues --   -0.60554  -0.26774  -0.12718  -0.12718  -0.12718
 Alpha virt. eigenvalues --    0.02298   0.02298   0.02298   0.02999   0.07874
 Alpha virt. eigenvalues --    0.07874   0.07874   0.11302   0.11302   0.11307
 Alpha virt. eigenvalues --    0.11307   0.11307   0.15896   0.28219   0.28219

 Mulliken charges and spin densities:
               1          2
     1  Co  -0.000000   3.000000
 Sum of Mulliken charges =  -0.00000   3.00000

 Dipole moment (field-independent basis, Debye):
    X=              0.0000    Y=              0.0000    Z=              0.0000  Tot=              0.0000
 Quadrupole moment (field-independent basis, Debye-Ang):
   XX=            -17.2143   YY=            -17.2143   ZZ=            -17.2143
   XY=             -0.0000   XZ=             -0.0000   YZ=              0.0000

 Normal termination of Gaussian 16 at Mon Apr  2 14:22:32 2018.
