 Gaussian 16, Revision A.03,
 Gaussian 16:  ES64L-G16RevA.03 25-Dec-2016

 ----------------------------------------------------------------------
 #P ROCCSD(T)=(maxcyc=150, Full, SaveAmplitudes, ReadAmplitudes)/Gen 5d
  7f SCF=(maxcycles=300) Integral(NoXCTest) MaxDisk=500GB Pop=Regular P
 seudo=Read Guess=Read
 ----------------------------------------------------------------------

 ---
 ScO
 ---
 Symbolic Z-matrix:
 Charge =  0 Multiplicity = 2

                         Standard orientation:
 ---------------------------------------------------------------------
 Center     Atomic      Atomic             Coordinates (Angstroms)
 Number     Number       Type             X           Y           Z
 ---------------------------------------------------------------------
      1         21           0        0.000000    0.000000    0.303448
      2          8           0        0.000000    0.000000   -0.796552
 ---------------------------------------------------------------------

 SCF Done:  E(ROHF) =  -61.5407099471     A.U. after   17 cycles
 E2 =    -0.6783637540D+00 EUMP2 =    -0.62219073701173D+02
 CCSD(T)
 CCSD(T)= -0.62248266824D+02

 The electronic state is 2-SG.
 Alpha  occ. eigenvalues --   -2.71817  -1.86474  -1.53595  -1.53595  -1.03492
 Alpha  occ. eigenvalues --   -0.69189  -0.69189  -0.47001  -0.16650
 Alpha virt. eigenvalues --    0.00933   0.00933   0.01380   0.02683   0.02833
 Alpha virt. eigenvalues --    0.02833   0.02847   0.02847   0.02952   0.04385
 Alpha virt. eigenvalues --    0.04385   0.06146   0.08160   0.08160   0.08404

 Mulliken charges and spin densities:
               1          2
     1  Sc   0.700109   1.032908
     2  O   -0.700109  -0.032908
 Sum of Mulliken charges =  -0.00000   1.00000

 Dipole moment (field-independent basis, Debye):
    X=              0.0000    Y=              0.0000    Z=             -2.3920  Tot=              2.3920
 Quadrupole moment (field-independent basis, Debye-Ang):
   XX=            -24.2666   YY=            -24.2666   ZZ=            -28.3358
   XY=              0.0000   XZ=              0.0000   YZ=              0.0000

 \\#P ROCCSD(T)=(maxcyc=150, Full, SaveAmplitudes, ReadAmplitudes)/Gen
 407099\PMP2-0=-62.2190737\CCSD=-62.2212999\CCSD(T)=-62.2482668\RMSD=1.
 Normal termination of Gaussian 16 at Tue Feb 20 20:58:37 2018.
