 Gaussian 16, Revision A.03,
 Gaussian 16:  ES64L-G16RevA.03 25-Dec-2016

 ----------------------------------------------------------------------
 #P ROCCSD(T)=(maxcyc=150, Full, SaveAmplitudes, ReadAmplitudes)/Gen 5d
  7f SCF=(maxcycles=300) Integral(NoXCTest) MaxDisk=500GB Pop=Regular P
 seudo=Read Guess=Read IOp(5/15=2)
 ----------------------------------------------------------------------

 ---
 ScO
 ---
 Symbolic Z-matrix:
 Charge =  0 Multiplicity = 2

                         Standard orientation:
 ---------------------------------------------------------------------
 Center     Atomic      Atomic             Coordinates (Angstroms)
 Number     Number       Type             X           Y           Z
 ---------------------------------------------------------------------
      1         21           0        0.000000    0.000000    0.441379
      2          8           0        0.000000    0.000000   -1.158621
 ---------------------------------------------------------------------

 SCF Done:  E(ROHF) =  -61.9322533173     A.U. after   16 cycles
 E2 =    -0.6792732575D+00 EUMP2 =    -0.62611526574800D+02
 CCSD(T)
 CCSD(T)= -0.62640053542D+02

 The electronic state is 2-SG.
 Alpha  occ. eigenvalues --   -2.62830  -1.66974  -1.61035  -1.61035  -1.12635
 Alpha  occ. eigenvalues --   -0.44220  -0.44220  -0.43900  -0.23938
 Alpha virt. eigenvalues --    0.00306   0.00306   0.01706   0.02285   0.03648
 Alpha virt. eigenvalues --    0.03648   0.03747   0.03747   0.04198   0.04198
 Alpha virt. eigenvalues --    0.04256   0.06026   0.08992   0.08992   0.10751

 Mulliken charges and spin densities:
               1          2
     1  Sc   1.275219   0.974979
     2  O   -1.275219   0.025021
 Sum of Mulliken charges =   0.00000   1.00000

 Dipole moment (field-independent basis, Debye):
    X=              0.0000    Y=              0.0000    Z=              3.8343  Tot=              3.8343
 Quadrupole moment (field-independent basis, Debye-Ang):
   XX=            -21.9018   YY=            -21.9018   ZZ=            -31.8685
   XY=              0.0000   XZ=              0.0000   YZ=              0.0000

 \\#P ROCCSD(T)=(maxcyc=150, Full, SaveAmplitudes, ReadAmplitudes)/Gen
 76\CCSD=-62.6023049\CCSD(T)=-62.6400535\RMSD=4.904e-09\PG=C*V [C*(O1Sc
 Normal termination of Gaussian 16 at Wed Feb 21 02:44:08 2018.
