 Gaussian 16, Revision A.03,
 Gaussian 16:  ES64L-G16RevA.03 25-Dec-2016

 ----------------------------------------------------------------------
 #P ROCCSD(T)=(maxcyc=150, Full)/Gen 5d 7f SCF=(maxcycles=300) Integral
 (NoXCTest) MaxDisk=500GB Pop=Regular Pseudo=Read IOp(5/15=2) Guess=Rea
 d
 ----------------------------------------------------------------------

 ---
 ScH
 ---
 Symbolic Z-matrix:
 Charge =  0 Multiplicity = 1

                         Standard orientation:
 ---------------------------------------------------------------------
 Center     Atomic      Atomic             Coordinates (Angstroms)
 Number     Number       Type             X           Y           Z
 ---------------------------------------------------------------------
      1         21           0        0.000000    0.000000    0.090909
      2          1           0        0.000000    0.000000   -1.909091
 ---------------------------------------------------------------------

 SCF Done:  E(ROHF) =  -46.7834566871     A.U. after   10 cycles
 E2 =    -0.4228679026D+00 EUMP2 =    -0.47206324589689D+02
 CCSD(T)
 CCSD(T)= -0.47252173059D+02

 The electronic state is 1-SG.
 Alpha  occ. eigenvalues --   -2.77405  -1.67833  -1.67833  -1.67624  -0.38152
 Alpha  occ. eigenvalues --   -0.23936
 Alpha virt. eigenvalues --    0.00954   0.00954   0.01305   0.02016   0.02820
 Alpha virt. eigenvalues --    0.02820   0.02941   0.02941   0.02992   0.03872
 Alpha virt. eigenvalues --    0.03872   0.03888   0.06641   0.06641   0.07445

 Mulliken charges and spin densities:
               1          2
     1  Sc   0.268051   0.000000
     2  H   -0.268051   0.000000
 Sum of Mulliken charges =  -0.00000   0.00000

 Dipole moment (field-independent basis, Debye):
    X=              0.0000    Y=              0.0000    Z=              2.0964  Tot=              2.0964
 Quadrupole moment (field-independent basis, Debye-Ang):
   XX=            -22.9397   YY=            -22.9397   ZZ=            -28.5562
   XY=              0.0000   XZ=              0.0000   YZ=              0.0000

 P ROCCSD(T)=(maxcyc=150, Full)/Gen 5d 7f SCF=(maxcycles=300) Integral(
 MP2-0=-47.2063246\MP4SDQ=-47.231786\CCSD=-47.2322269\CCSD(T)=-47.25217
 Normal termination of Gaussian 16 at Wed Feb 14 08:34:21 2018.
