 Gaussian 16, Revision A.03,
 Gaussian 16:  ES64L-G16RevA.03 25-Dec-2016

 ----------------------------------------------------------------------
 #P ROCCSD(T)=(MaxCyc=150, Full)/Gen SCF=(maxcycle=400, vshift=200) Pse
 udo=Read Integral(NoXCTest) Pop=Regular MaxDisk=500GB Guess=Read IOp(5
 /15=2)
 ----------------------------------------------------------------------

 ---
 ZnH
 ---
 Symbolic Z-matrix:
 Charge =  0 Multiplicity = 2

                         Standard orientation:
 ---------------------------------------------------------------------
 Center     Atomic      Atomic             Coordinates (Angstroms)
 Number     Number       Type             X           Y           Z
 ---------------------------------------------------------------------
      1         30           0        0.000000    0.000000    0.041935
      2          1           0        0.000000    0.000000   -1.258065
 ---------------------------------------------------------------------

 SCF Done:  E(ROHF) =  -226.523850214     A.U. after   18 cycles
 E2 =    -0.1054504915D+01 EUMP2 =    -0.22757835512878D+03
 CCSD(T)
 CCSD(T)= -0.22753103411D+03

 The electronic state is 2-SG.
 Alpha  occ. eigenvalues --   -5.58021  -3.87606  -3.87172  -3.87172  -0.80986
 Alpha  occ. eigenvalues --   -0.79465  -0.79465  -0.79236  -0.79236  -0.48389
 Alpha  occ. eigenvalues --   -0.27117
 Alpha virt. eigenvalues --    0.02146   0.02146   0.02676   0.04091   0.07731
 Alpha virt. eigenvalues --    0.07731   0.08932   0.15943   0.19100   0.24476
 Alpha virt. eigenvalues --    0.24476   0.25159   0.25159   0.26477   0.28628

 Mulliken charges and spin densities:
               1          2
     1  Zn   0.298663   0.957522
     2  H   -0.298663   0.042478
 Sum of Mulliken charges =  -0.00000   1.00000

 Dipole moment (field-independent basis, Debye):
    X=              0.0000    Y=              0.0000    Z=             -0.0297  Tot=              0.0297
 Quadrupole moment (field-independent basis, Debye-Ang):
   XX=            -14.2979   YY=            -14.2979   ZZ=            -20.3822
   XY=              0.0000   XZ=              0.0000   YZ=              0.0000

 \\#P ROCCSD(T)=(MaxCyc=150, Full)/Gen SCF=(maxcycle=400, vshift=200) P
 Normal termination of Gaussian 16 at Sat Apr 21 10:25:44 2018.
