 Gaussian 16, Revision A.03,
 Gaussian 16:  ES64L-G16RevA.03 25-Dec-2016

 ----------------------------------------------------------------------
 #P ROCCSD(T)=(MaxCyc=150, Full)/Gen SCF=(maxcycle=400, vshift=200) Pse
 udo=Read Integral(NoXCTest) Pop=Regular MaxDisk=500GB Guess=Read IOp(5
 /15=2)
 ----------------------------------------------------------------------

 ---
 ZnH
 ---
 Symbolic Z-matrix:
 Charge =  0 Multiplicity = 2

                         Standard orientation:
 ---------------------------------------------------------------------
 Center     Atomic      Atomic             Coordinates (Angstroms)
 Number     Number       Type             X           Y           Z
 ---------------------------------------------------------------------
      1         30           0        0.000000    0.000000    0.041935
      2          1           0        0.000000    0.000000   -1.258065
 ---------------------------------------------------------------------

 SCF Done:  E(ROHF) =  -226.525792759     A.U. after   21 cycles
 E2 =    -0.1135387848D+01 EUMP2 =    -0.22766118060640D+03
 CCSD(T)
 CCSD(T)= -0.22761098779D+03

 The electronic state is 2-SG.
 Alpha  occ. eigenvalues --   -5.58001  -3.87587  -3.87150  -3.87150  -0.80986
 Alpha  occ. eigenvalues --   -0.79463  -0.79463  -0.79237  -0.79237  -0.48386
 Alpha  occ. eigenvalues --   -0.27118
 Alpha virt. eigenvalues --    0.01957   0.01957   0.02186   0.03361   0.06365
 Alpha virt. eigenvalues --    0.06365   0.06926   0.11859   0.13991   0.15346
 Alpha virt. eigenvalues --    0.15346   0.15541   0.15541   0.18987   0.20570

 Mulliken charges and spin densities:
               1          2
     1  Zn   0.276071   0.943834
     2  H   -0.276071   0.056166
 Sum of Mulliken charges =  -0.00000   1.00000

 Dipole moment (field-independent basis, Debye):
    X=              0.0000    Y=              0.0000    Z=             -0.0297  Tot=              0.0297
 Quadrupole moment (field-independent basis, Debye-Ang):
   XX=            -14.2913   YY=            -14.2913   ZZ=            -20.3856
   XY=              0.0000   XZ=              0.0000   YZ=              0.0000

 \\#P ROCCSD(T)=(MaxCyc=150, Full)/Gen SCF=(maxcycle=400, vshift=200) P
 CCSD(T)=-227.6109878\RMSD=2.654e-09\PG=C*V [C*(H1Zn1)]\\@
 Normal termination of Gaussian 16 at Sun Apr 29 00:38:25 2018.
