 Gaussian 16, Revision A.03,
 Gaussian 16:  ES64L-G16RevA.03 25-Dec-2016

 ----------------------------------------------------------------------
 #P ROCCSD(T)=(MaxCyc=150, Full)/Gen SCF=(maxcycle=400, vshift=200) Pse
 udo=Read Integral(NoXCTest) Pop=Regular MaxDisk=500GB Guess=Read IOp(5
 /15=2)
 ----------------------------------------------------------------------

 ---
 ZnH
 ---
 Symbolic Z-matrix:
 Charge =  0 Multiplicity = 2

                         Standard orientation:
 ---------------------------------------------------------------------
 Center     Atomic      Atomic             Coordinates (Angstroms)
 Number     Number       Type             X           Y           Z
 ---------------------------------------------------------------------
      1         30           0        0.000000    0.000000    0.041935
      2          1           0        0.000000    0.000000   -1.258065
 ---------------------------------------------------------------------

 SCF Done:  E(ROHF) =  -226.525471733     A.U. after   19 cycles
 E2 =    -0.1109102811D+01 EUMP2 =    -0.22763457454394D+03
 CCSD(T)
 CCSD(T)= -0.22758638472D+03

 The electronic state is 2-SG.
 Alpha  occ. eigenvalues --   -5.57989  -3.87588  -3.87152  -3.87152  -0.80988
 Alpha  occ. eigenvalues --   -0.79465  -0.79465  -0.79237  -0.79237  -0.48385
 Alpha  occ. eigenvalues --   -0.27117
 Alpha virt. eigenvalues --    0.02020   0.02020   0.02515   0.03747   0.06785
 Alpha virt. eigenvalues --    0.06785   0.07984   0.14407   0.17683   0.17879
 Alpha virt. eigenvalues --    0.17879   0.18229   0.18229   0.21711   0.23060

 Mulliken charges and spin densities:
               1          2
     1  Zn   0.274588   0.943088
     2  H   -0.274588   0.056912
 Sum of Mulliken charges =  -0.00000   1.00000

 Dipole moment (field-independent basis, Debye):
    X=              0.0000    Y=              0.0000    Z=             -0.0295  Tot=              0.0295
 Quadrupole moment (field-independent basis, Debye-Ang):
   XX=            -14.2931   YY=            -14.2931   ZZ=            -20.3858
   XY=              0.0000   XZ=              0.0000   YZ=              0.0000

 \\#P ROCCSD(T)=(MaxCyc=150, Full)/Gen SCF=(maxcycle=400, vshift=200) P
 CCSD(T)=-227.5863847\RMSD=6.852e-09\PG=C*V [C*(H1Zn1)]\\@
 Normal termination of Gaussian 16 at Sat Apr 21 11:18:09 2018.
