 Gaussian 16, Revision A.03,
 Gaussian 16:  ES64L-G16RevA.03 25-Dec-2016

 ----------------------------------------------------------------------
 #P ROCCSD(T)=(maxcyc=150, Full, SaveAmplitudes, ReadAmplitudes)/Gen 5d
  7f SCF=(maxcycles=300) Integral(NoXCTest) MaxDisk=500GB Pop=Regular P
 seudo=Read Guess=Read IOp(5/15=2)
 ----------------------------------------------------------------------

 ---
 CrO
 ---
 Symbolic Z-matrix:
 Charge =  0 Multiplicity = 5

                         Standard orientation:
 ---------------------------------------------------------------------
 Center     Atomic      Atomic             Coordinates (Angstroms)
 Number     Number       Type             X           Y           Z
 ---------------------------------------------------------------------
      1         24           0        0.000000    0.000000    0.350000
      2          8           0        0.000000    0.000000   -1.050000
 ---------------------------------------------------------------------

 SCF Done:  E(ROHF) =  -101.803499979     A.U. after   29 cycles
 E2 =    -0.8776772793D+00 EUMP2 =    -0.10268117725880D+03
 CCSD(T)
 CCSD(T)= -0.10269840685D+03

 Unable to determine electronic state:  an orbital has unidentified symmetry.
 Alpha  occ. eigenvalues --   -3.76553  -2.50674  -2.46467  -2.45873  -1.22938
 Alpha  occ. eigenvalues --   -0.65478  -0.56978  -0.53856  -0.53507  -0.52130
 Alpha  occ. eigenvalues --   -0.38648  -0.28436
 Alpha virt. eigenvalues --    0.01076   0.01875   0.02181   0.03060   0.04943
 Alpha virt. eigenvalues --    0.05891   0.06783   0.07669   0.07675   0.07969
 Alpha virt. eigenvalues --    0.08498   0.09198   0.12548   0.15893   0.17932

 Mulliken charges and spin densities:
               1          2
     1  Cr   0.993642   3.810933
     2  O   -0.993642   0.189067
 Sum of Mulliken charges =  -0.00000   4.00000

 Dipole moment (field-independent basis, Debye):
    X=              0.0000    Y=              0.0000    Z=              3.0900  Tot=              3.0900
 Quadrupole moment (field-independent basis, Debye-Ang):
   XX=            -21.0568   YY=            -19.7903   ZZ=            -24.2511
   XY=              0.0000   XZ=              0.0000   YZ=              0.0000

 \\#P ROCCSD(T)=(maxcyc=150, Full, SaveAmplitudes, ReadAmplitudes)/Gen
 2.6536738\CCSD(T)=-102.6984069\RMSD=3.854e-09\PG=C*V [C*(O1Cr1)]\\@
 Normal termination of Gaussian 16 at Mon Mar 12 14:31:07 2018.
