 Gaussian 16, Revision A.03,
 Gaussian 16:  ES64L-G16RevA.03 25-Dec-2016

 ----------------------------------------------------------------------
 #P ROCCSD(T)=(maxcyc=150, Full, SaveAmplitudes, ReadAmplitudes)/Gen 5d
  7f SCF=(maxcycles=300, VShift=400) Integral(NoXCTest) MaxDisk=500GB P
 op=Full Pseudo=Read Guess=Read IOp(5/15=2)
 ----------------------------------------------------------------------

 ---
 MnH
 ---
 Symbolic Z-matrix:
 Charge =  0 Multiplicity = 7

                         Standard orientation:
 ---------------------------------------------------------------------
 Center     Atomic      Atomic             Coordinates (Angstroms)
 Number     Number       Type             X           Y           Z
 ---------------------------------------------------------------------
      1         25           0        0.000000    0.000000    0.057692
      2          1           0        0.000000    0.000000   -1.442308
 ---------------------------------------------------------------------

 SCF Done:  E(ROHF) =  -103.781554345     A.U. after   41 cycles
 E2 =    -0.5804319837D+00 EUMP2 =    -0.10436198632904D+03
 CCSD(T)
 CCSD(T)= -0.10438337972D+03

 The electronic state is 7-SG.
 Alpha  occ. eigenvalues --   -4.14363  -2.76357  -2.76334  -2.76334  -0.64735
 Alpha  occ. eigenvalues --   -0.63853  -0.63853  -0.63287  -0.63287  -0.41830
 Alpha  occ. eigenvalues --   -0.25306
 Alpha virt. eigenvalues --    0.01349   0.01349   0.02253   0.03194   0.05830
 Alpha virt. eigenvalues --    0.05830   0.08465   0.08508   0.08508   0.08964
 Alpha virt. eigenvalues --    0.08964   0.09399   0.14119   0.20685   0.22794

 Mulliken charges and spin densities:
               1          2
     1  Mn   0.438638   5.955426
     2  H   -0.438638   0.044574
 Sum of Mulliken charges =  -0.00000   6.00000

 Dipole moment (field-independent basis, Debye):
    X=              0.0000    Y=              0.0000    Z=              0.6172  Tot=              0.6172
 Quadrupole moment (field-independent basis, Debye-Ang):
   XX=            -16.0522   YY=            -16.0522   ZZ=            -25.6768
   XY=              0.0000   XZ=              0.0000   YZ=              0.0000

 \\#P ROCCSD(T)=(maxcyc=150, Full, SaveAmplitudes, ReadAmplitudes)/Gen
 4SDQ=-104.3665664\CCSD=-104.3672834\CCSD(T)=-104.3833797\RMSD=9.441e-0
 Normal termination of Gaussian 16 at Sat May  5 08:34:32 2018.
