 Gaussian 16, Revision A.03,
 Gaussian 16:  ES64L-G16RevA.03 25-Dec-2016

 ----------------------------------------------------------------------
 #P ROCCSD(T)=(MaxCyc=150, Full)/Gen SCF=(maxcycle=400) Integral(DKHSO,
  NoXCTest) Pop=Regular MaxDisk=500GB Guess=Read IOp(5/15=2)
 ----------------------------------------------------------------------

 ---
 ZnO
 ---
 Symbolic Z-matrix:
 Charge =  0 Multiplicity = 1

                         Standard orientation:
 ---------------------------------------------------------------------
 Center     Atomic      Atomic             Coordinates (Angstroms)
 Number     Number       Type             X           Y           Z
 ---------------------------------------------------------------------
      1         30           0        0.000000    0.000000    0.378947
      2          8           0        0.000000    0.000000   -1.421053
 ---------------------------------------------------------------------

 SCF Done:  E(ROHF) =  -1869.07858159     A.U. after   10 cycles
 E2 =    -0.1905385459D+01 EUMP2 =    -0.18709839670473D+04
 CCSD(T)
 CCSD(T)= -0.18709045083D+04

 The electronic state is 1-SG.
 Alpha  occ. eigenvalues -- -357.61990 -45.38609 -39.18963 -39.18963 -39.18730
 Alpha  occ. eigenvalues --  -20.52811  -5.85513  -3.93439  -3.93417  -3.93417
 Alpha  occ. eigenvalues --   -1.14981  -0.82397  -0.82397  -0.82067  -0.82067
 Alpha  occ. eigenvalues --   -0.80704  -0.41290  -0.41290  -0.36419
 Alpha virt. eigenvalues --   -0.04535   0.02312   0.02312   0.02451   0.04144
 Alpha virt. eigenvalues --    0.07523   0.07523   0.11821   0.16548   0.17232
 Alpha virt. eigenvalues --    0.17766   0.17766   0.20191   0.20191   0.23206

 Mulliken charges and spin densities:
               1          2
     1  Zn   0.853932   0.000000
     2  O   -0.853932   0.000000
 Sum of Mulliken charges =  -0.00000   0.00000

 Dipole moment (field-independent basis, Debye):
    X=              0.0000    Y=              0.0000    Z=              6.6829  Tot=              6.6829
 Quadrupole moment (field-independent basis, Debye-Ang):
   XX=            -18.5561   YY=            -18.5561   ZZ=            -22.1632
   XY=              0.0000   XZ=              0.0000   YZ=             -0.0000

 P ROCCSD(T)=(MaxCyc=150, Full)/Gen SCF=(maxcycle=400) Integral(DKHSO,
 0=-1870.983967\MP4SDQ=-1870.8964638\CCSD=-1870.8515146\CCSD(T)=-1870.9
 Normal termination of Gaussian 16 at Sat Mar 17 12:28:38 2018.
