 Gaussian 16, Revision A.03,
 Gaussian 16:  ES64L-G16RevA.03 25-Dec-2016

 ----------------------------------------------------------------------
 #P ROCCSD(T)=(maxcyc=150, Full, SaveAmplitudes, ReadAmplitudes)/Gen 5d
  7f SCF=(maxcycles=300) Integral(NoXCTest) MaxDisk=500GB Pop=Regular P
 seudo=Read Guess=Read
 ----------------------------------------------------------------------

 ---
 ScO
 ---
 Symbolic Z-matrix:
 Charge =  0 Multiplicity = 2

                         Standard orientation:
 ---------------------------------------------------------------------
 Center     Atomic      Atomic             Coordinates (Angstroms)
 Number     Number       Type             X           Y           Z
 ---------------------------------------------------------------------
      1         21           0        0.000000    0.000000    0.441379
      2          8           0        0.000000    0.000000   -1.158621
 ---------------------------------------------------------------------

 SCF Done:  E(ROHF) =  -61.8682482123     A.U. after   18 cycles
 E2 =    -0.6780205007D+00 EUMP2 =    -0.62546268713076D+02
 CCSD(T)
 CCSD(T)= -0.62574166691D+02

 The electronic state is 2-SG.
 Alpha  occ. eigenvalues --   -2.63634  -1.67054  -1.61024  -1.61024  -1.12586
 Alpha  occ. eigenvalues --   -0.44252  -0.44252  -0.43900  -0.23904
 Alpha virt. eigenvalues --    0.00318   0.00318   0.01700   0.02292   0.03648
 Alpha virt. eigenvalues --    0.03648   0.03758   0.03758   0.04200   0.04200
 Alpha virt. eigenvalues --    0.04256   0.06038   0.08982   0.08982   0.10752

 Mulliken charges and spin densities:
               1          2
     1  Sc   1.289400   0.975218
     2  O   -1.289400   0.024782
 Sum of Mulliken charges =  -0.00000   1.00000

 Dipole moment (field-independent basis, Debye):
    X=              0.0000    Y=              0.0000    Z=              3.8398  Tot=              3.8398
 Quadrupole moment (field-independent basis, Debye-Ang):
   XX=            -21.9546   YY=            -21.9546   ZZ=            -31.8386
   XY=              0.0000   XZ=              0.0000   YZ=              0.0000

 \\#P ROCCSD(T)=(maxcyc=150, Full, SaveAmplitudes, ReadAmplitudes)/Gen
 5366701\CCSD(T)=-62.5741667\RMSD=7.351e-09\PG=C*V [C*(O1Sc1)]\\@
 Normal termination of Gaussian 16 at Wed Feb 21 17:08:50 2018.
