 Gaussian 16, Revision A.03,
 Gaussian 16:  ES64L-G16RevA.03 25-Dec-2016

 ----------------------------------------------------------------------
 #P ROCCSD(T)=(maxcyc=150, Full, SaveAmplitudes, ReadAmplitudes)/Gen 5d
  7f SCF=(maxcycles=300, VShift=400) Integral(NoXCTest) MaxDisk=500GB P
 op=Full Pseudo=Read Guess=Read IOp(5/15=2)
 ----------------------------------------------------------------------

 ---
 MnO
 ---
 Symbolic Z-matrix:
 Charge =  0 Multiplicity = 6

                         Standard orientation:
 ---------------------------------------------------------------------
 Center     Atomic      Atomic             Coordinates (Angstroms)
 Number     Number       Type             X           Y           Z
 ---------------------------------------------------------------------
      1         25           0        0.000000    0.000000    0.363636
      2          8           0        0.000000    0.000000   -1.136364
 ---------------------------------------------------------------------

 SCF Done:  E(ROHF) =  -119.326369664     A.U. after   56 cycles
 E2 =    -0.9332566489D+00 EUMP2 =    -0.12025962631254D+03
 CCSD(T)
 CCSD(T)= -0.12027370985D+03

 The electronic state is 6-SG.
 Alpha  occ. eigenvalues --   -4.12749  -2.75439  -2.75439  -2.73379  -1.19227
 Alpha  occ. eigenvalues --   -0.68145  -0.68145  -0.64092  -0.64092  -0.53760
 Alpha  occ. eigenvalues --   -0.38578  -0.38578  -0.33286
 Alpha virt. eigenvalues --   -0.00728   0.01974   0.01974   0.03249   0.03836
 Alpha virt. eigenvalues --    0.06933   0.06933   0.08654   0.08654   0.08721
 Alpha virt. eigenvalues --    0.09510   0.09510   0.13275   0.14630   0.23353

 Mulliken charges and spin densities:
               1          2
     1  Mn   1.036532   4.820448
     2  O   -1.036532   0.179552
 Sum of Mulliken charges =  -0.00000   5.00000

 Dipole moment (field-independent basis, Debye):
    X=              0.0000    Y=              0.0000    Z=              6.3837  Tot=              6.3837
 Quadrupole moment (field-independent basis, Debye-Ang):
   XX=            -19.1524   YY=            -19.1524   ZZ=            -22.6419
   XY=              0.0000   XZ=              0.0000   YZ=              0.0000

 \\#P ROCCSD(T)=(maxcyc=150, Full, SaveAmplitudes, ReadAmplitudes)/Gen
 4SDQ=-120.248822\CCSD=-120.2311125\CCSD(T)=-120.2737098\RMSD=8.591e-09
 Normal termination of Gaussian 16 at Wed Apr  4 02:22:22 2018.
