 Gaussian 16, Revision A.03,
 Gaussian 16:  ES64L-G16RevA.03 25-Dec-2016

 ----------------------------------------------------------------------
 #P ROCCSD(T)=(maxcyc=150, Full, SaveAmplitudes, ReadAmplitudes)/Gen 5d
  7f SCF=(maxcycles=300) Integral(NoXCTest) MaxDisk=500GB Pop=Regular P
 seudo=Read Guess=Read
 ----------------------------------------------------------------------

 ---
 MnH
 ---
 Symbolic Z-matrix:
 Charge =  0 Multiplicity = 7

                         Standard orientation:
 ---------------------------------------------------------------------
 Center     Atomic      Atomic             Coordinates (Angstroms)
 Number     Number       Type             X           Y           Z
 ---------------------------------------------------------------------
      1         25           0        0.000000    0.000000    0.042308
      2          1           0        0.000000    0.000000   -1.057692
 ---------------------------------------------------------------------

 SCF Done:  E(ROHF) =  -104.054603249     A.U. after   22 cycles
 E2 =    -0.6375444718D+00 EUMP2 =    -0.10469214772031D+03
 CCSD(T)
 CCSD(T)= -0.10470868658D+03

 The electronic state is 7-SG.
 Alpha  occ. eigenvalues --   -4.17349  -2.77319  -2.75627  -2.75627  -0.70461
 Alpha  occ. eigenvalues --   -0.64858  -0.64858  -0.64231  -0.64231  -0.40609
 Alpha  occ. eigenvalues --   -0.22582
 Alpha virt. eigenvalues --    0.01288   0.01288   0.01813   0.03270   0.05120
 Alpha virt. eigenvalues --    0.05120   0.05764   0.05820   0.05820   0.06115
 Alpha virt. eigenvalues --    0.06115   0.07974   0.14054   0.15889   0.17673

 Mulliken charges and spin densities:
               1          2
     1  Mn   0.575605   5.832503
     2  H   -0.575605   0.167497
 Sum of Mulliken charges =  -0.00000   6.00000

 Dipole moment (field-independent basis, Debye):
    X=              0.0000    Y=              0.0000    Z=             -0.7570  Tot=              0.7570
 Quadrupole moment (field-independent basis, Debye-Ang):
   XX=            -15.9605   YY=            -15.9605   ZZ=            -25.4735
   XY=              0.0000   XZ=              0.0000   YZ=              0.0000

 \\#P ROCCSD(T)=(maxcyc=150, Full, SaveAmplitudes, ReadAmplitudes)/Gen
 4.0546032\PMP2-0=-104.6921477\CCSD=-104.6899748\CCSD(T)=-104.7086866\R
 Normal termination of Gaussian 16 at Sun Feb 25 20:34:20 2018.
