 Gaussian 16, Revision A.03,
 Gaussian 16:  ES64L-G16RevA.03 25-Dec-2016

 ----------------------------------------------------------------------
 #P ROCCSD(T)=(maxcyc=150, Full, SaveAmplitudes, ReadAmplitudes)/Gen 5d
  7f SCF=(maxcycles=300, VShift=400) Integral(NoXCTest) MaxDisk=500GB P
 op=Full Pseudo=Read Guess=Read IOp(5/15=2)
 ----------------------------------------------------------------------

 ---
 CrO
 ---
 Symbolic Z-matrix:
 Charge =  0 Multiplicity = 5

                         Standard orientation:
 ---------------------------------------------------------------------
 Center     Atomic      Atomic             Coordinates (Angstroms)
 Number     Number       Type             X           Y           Z
 ---------------------------------------------------------------------
      1         24           0        0.000000    0.000000    0.475000
      2          8           0        0.000000    0.000000   -1.425000
 ---------------------------------------------------------------------

 SCF Done:  E(ROHF) =  -101.682888289     A.U. after   82 cycles
 E2 =    -0.8493284379D+00 EUMP2 =    -0.10253221672647D+03
 CCSD(T)
 CCSD(T)= -0.10258979961D+03

 Unable to determine electronic state:  an orbital has unidentified symmetry.
 Alpha  occ. eigenvalues --   -3.73552  -2.50536  -2.45452  -2.44731  -1.08613
 Alpha  occ. eigenvalues --   -0.59215  -0.56905  -0.56748  -0.54095  -0.33229
 Alpha  occ. eigenvalues --   -0.32736  -0.31887
 Alpha virt. eigenvalues --   -0.05286   0.00520   0.01180   0.01549   0.03697
 Alpha virt. eigenvalues --    0.04776   0.05970   0.07329   0.07332   0.07622
 Alpha virt. eigenvalues --    0.08319   0.08578   0.12634   0.12671   0.15504

 Mulliken charges and spin densities:
               1          2
     1  Cr   1.125409   3.965243
     2  O   -1.125409   0.034757
 Sum of Mulliken charges =  -0.00000   4.00000

 Dipole moment (field-independent basis, Debye):
    X=              0.0000    Y=              0.0000    Z=             10.1888  Tot=             10.1888
 Quadrupole moment (field-independent basis, Debye-Ang):
   XX=            -19.7394   YY=            -19.0531   ZZ=            -24.9373
   XY=              0.0000   XZ=              0.0000   YZ=              0.0000

 \\#P ROCCSD(T)=(maxcyc=150, Full, SaveAmplitudes, ReadAmplitudes)/Gen
 449326\CCSD=-102.5353737\CCSD(T)=-102.5897996\RMSD=8.799e-09\PG=C*V [C
 Normal termination of Gaussian 16 at Thu Apr 19 08:08:33 2018.
