 Gaussian 16, Revision A.03,
 Gaussian 16:  ES64L-G16RevA.03 25-Dec-2016

 ----------------------------------------------------------------------
 #P ROCCSD(T)=(maxcyc=150, Full, SaveAmplitudes, ReadAmplitudes)/Gen 5d
  7f SCF=(maxcycles=300) Integral(NoXCTest) MaxDisk=500GB Pop=Regular P
 seudo=Read Guess=Read
 ----------------------------------------------------------------------

 ---
 ScO
 ---
 Symbolic Z-matrix:
 Charge =  0 Multiplicity = 2

                         Standard orientation:
 ---------------------------------------------------------------------
 Center     Atomic      Atomic             Coordinates (Angstroms)
 Number     Number       Type             X           Y           Z
 ---------------------------------------------------------------------
      1         21           0        0.000000    0.000000    0.358621
      2          8           0        0.000000    0.000000   -0.941379
 ---------------------------------------------------------------------

 SCF Done:  E(ROHF) =  -61.9228773064     A.U. after   17 cycles
 E2 =    -0.7005293153D+00 EUMP2 =    -0.62623406621699D+02
 CCSD(T)
 CCSD(T)= -0.62648661057D+02

 The electronic state is 2-SG.
 Alpha  occ. eigenvalues --   -2.61553  -1.76326  -1.53036  -1.53036  -1.06012
 Alpha  occ. eigenvalues --   -0.57642  -0.57642  -0.47026  -0.19548
 Alpha virt. eigenvalues --    0.00966   0.00966   0.01896   0.02272   0.02812
 Alpha virt. eigenvalues --    0.02812   0.02897   0.02897   0.02897   0.04185
 Alpha virt. eigenvalues --    0.04185   0.06566   0.08089   0.08089   0.08565

 Mulliken charges and spin densities:
               1          2
     1  Sc   0.960418   1.008565
     2  O   -0.960418  -0.008565
 Sum of Mulliken charges =  -0.00000   1.00000

 Dipole moment (field-independent basis, Debye):
    X=              0.0000    Y=              0.0000    Z=              0.2479  Tot=              0.2479
 Quadrupole moment (field-independent basis, Debye-Ang):
   XX=            -22.6568   YY=            -22.6568   ZZ=            -29.3666
   XY=              0.0000   XZ=              0.0000   YZ=              0.0000

 \\#P ROCCSD(T)=(maxcyc=150, Full, SaveAmplitudes, ReadAmplitudes)/Gen
 228773\PMP2-0=-62.6234066\CCSD=-62.6166745\CCSD(T)=-62.6486611\RMSD=1.
 Normal termination of Gaussian 16 at Tue Feb 20 23:36:58 2018.
