 Gaussian 16, Revision A.03,
 Gaussian 16:  ES64L-G16RevA.03 25-Dec-2016

 ----------------------------------------------------------------------
 #P ROCCSD(T)=(maxcyc=150, Full, SaveAmplitudes, ReadAmplitudes)/Gen 5d
  7f SCF=(maxcycles=300) Integral(NoXCTest) MaxDisk=500GB Pop=Regular P
 seudo=Read Guess=Read
 ----------------------------------------------------------------------

 ---
 MnO
 ---
 Symbolic Z-matrix:
 Charge =  0 Multiplicity = 6

                         Standard orientation:
 ---------------------------------------------------------------------
 Center     Atomic      Atomic             Coordinates (Angstroms)
 Number     Number       Type             X           Y           Z
 ---------------------------------------------------------------------
      1         25           0        0.000000    0.000000    0.363636
      2          8           0        0.000000    0.000000   -1.136364
 ---------------------------------------------------------------------

 SCF Done:  E(ROHF) =  -119.345847483     A.U. after   23 cycles
 E2 =    -0.9871947202D+00 EUMP2 =    -0.12033304220283D+03
 CCSD(T)
 CCSD(T)= -0.12034626742D+03

 The electronic state is 6-SG.
 Alpha  occ. eigenvalues --   -4.09335  -2.75489  -2.75489  -2.73127  -1.17808
 Alpha  occ. eigenvalues --   -0.67772  -0.67772  -0.63620  -0.63620  -0.53325
 Alpha  occ. eigenvalues --   -0.38771  -0.38771  -0.33580
 Alpha virt. eigenvalues --   -0.00703   0.01747   0.01747   0.03000   0.03419
 Alpha virt. eigenvalues --    0.05892   0.05892   0.05895   0.05895   0.06225
 Alpha virt. eigenvalues --    0.07061   0.07061   0.11908   0.13424   0.17762

 Mulliken charges and spin densities:
               1          2
     1  Mn   1.158756   4.822795
     2  O   -1.158756   0.177205
 Sum of Mulliken charges =  -0.00000   5.00000

 Dipole moment (field-independent basis, Debye):
    X=              0.0000    Y=              0.0000    Z=              6.2512  Tot=              6.2512
 Quadrupole moment (field-independent basis, Debye-Ang):
   XX=            -19.2590   YY=            -19.2590   ZZ=            -22.7075
   XY=              0.0000   XZ=              0.0000   YZ=              0.0000

 \\#P ROCCSD(T)=(maxcyc=150, Full, SaveAmplitudes, ReadAmplitudes)/Gen
 9.3458475\PMP2-0=-120.3330422\CCSD=-120.3011672\CCSD(T)=-120.3462674\R
 Normal termination of Gaussian 16 at Tue Mar 13 06:06:40 2018.
