 Gaussian 16, Revision A.03,
 Gaussian 16:  ES64L-G16RevA.03 25-Dec-2016

 ----------------------------------------------------------------------
 #P ROCCSD(T)=(MaxCyc=150, Full)/Gen SCF=(maxcycle=400, vshift=200) Int
 egral(DKHSO, NoXCTest) Pop=Regular MaxDisk=500GB Guess=Read IOp(5/15=2
 )
 ----------------------------------------------------------------------

 ---
 CoH
 ---
 Symbolic Z-matrix:
 Charge =  0 Multiplicity = 3

                         Standard orientation:
 ---------------------------------------------------------------------
 Center     Atomic      Atomic             Coordinates (Angstroms)
 Number     Number       Type             X           Y           Z
 ---------------------------------------------------------------------
      1         27           0        0.000000    0.000000    0.039286
      2          1           0        0.000000    0.000000   -1.060714
 ---------------------------------------------------------------------

 SCF Done:  E(ROHF) =  -1392.25003047     A.U. after   52 cycles
 E2 =    -0.1370722663D+01 EUMP2 =    -0.13936207531375D+04
 CCSD(T)
 CCSD(T)= -0.13935705117D+04

 Unable to determine electronic state:  partially filled degenerate orbitals.
 Alpha  occ. eigenvalues -- -285.60095 -35.29543 -30.06439 -30.06439 -30.06146
 Alpha  occ. eigenvalues --   -4.50880  -2.94743  -2.93881  -2.93881  -0.53300
 Alpha  occ. eigenvalues --   -0.49332  -0.46374  -0.46374  -0.44983  -0.29521
 Alpha virt. eigenvalues --    0.01094   0.02456   0.02456   0.02756   0.06006
 Alpha virt. eigenvalues --    0.07116   0.07417   0.07430   0.07516   0.07516
 Alpha virt. eigenvalues --    0.08297   0.08297   0.09653   0.18770   0.21812

 Mulliken charges and spin densities:
               1          2
     1  Co   0.465994   2.007447
     2  H   -0.465994  -0.007447
 Sum of Mulliken charges =  -0.00000   2.00000

 Dipole moment (field-independent basis, Debye):
    X=             -0.0000    Y=              0.0000    Z=              3.1853  Tot=              3.1853
 Quadrupole moment (field-independent basis, Debye-Ang):
   XX=            -14.4227   YY=            -14.4226   ZZ=            -16.0640
   XY=             -0.0000   XZ=              0.0000   YZ=             -0.0000

 \\#P ROCCSD(T)=(MaxCyc=150, Full)/Gen SCF=(maxcycle=400, vshift=200) I
 PMP2-0=-1393.6207531\MP4SDQ=-1393.570937\CCSD=-1393.5345191\CCSD(T)=-1
 Normal termination of Gaussian 16 at Sun Apr 22 02:55:26 2018.
