 Gaussian 16, Revision A.03,
 Gaussian 16:  ES64L-G16RevA.03 25-Dec-2016

 ----------------------------------------------------------------------
 #P ROCCSD(T)=(maxcyc=150, Full, SaveAmplitudes, ReadAmplitudes)/Gen 5d
  7f SCF=(maxcycles=300) Integral(NoXCTest) MaxDisk=500GB Pop=Regular P
 seudo=Read Guess=Read
 ----------------------------------------------------------------------

 ---
 ScO
 ---
 Symbolic Z-matrix:
 Charge =  0 Multiplicity = 2

                         Standard orientation:
 ---------------------------------------------------------------------
 Center     Atomic      Atomic             Coordinates (Angstroms)
 Number     Number       Type             X           Y           Z
 ---------------------------------------------------------------------
      1         21           0        0.000000    0.000000    0.441379
      2          8           0        0.000000    0.000000   -1.158621
 ---------------------------------------------------------------------

 SCF Done:  E(ROHF) =  -61.9344841962     A.U. after   17 cycles
 E2 =    -0.7085304814D+00 EUMP2 =    -0.62643014677669D+02
 CCSD(T)
 CCSD(T)= -0.62669043032D+02

 The electronic state is 2-SG.
 Alpha  occ. eigenvalues --   -2.62810  -1.66938  -1.61015  -1.61015  -1.12585
 Alpha  occ. eigenvalues --   -0.44216  -0.44216  -0.43884  -0.23935
 Alpha virt. eigenvalues --    0.00287   0.00287   0.01550   0.02085   0.02734
 Alpha virt. eigenvalues --    0.02734   0.03027   0.03027   0.03274   0.03387
 Alpha virt. eigenvalues --    0.03387   0.05169   0.07257   0.07257   0.09310

 Mulliken charges and spin densities:
               1          2
     1  Sc   1.254479   0.991107
     2  O   -1.254479   0.008893
 Sum of Mulliken charges =  -0.00000   1.00000

 Dipole moment (field-independent basis, Debye):
    X=              0.0000    Y=              0.0000    Z=              3.8305  Tot=              3.8305
 Quadrupole moment (field-independent basis, Debye-Ang):
   XX=            -21.8948   YY=            -21.8948   ZZ=            -31.8666
   XY=              0.0000   XZ=              0.0000   YZ=              0.0000

 \\#P ROCCSD(T)=(maxcyc=150, Full, SaveAmplitudes, ReadAmplitudes)/Gen
 344842\PMP2-0=-62.6430147\CCSD=-62.6294987\CCSD(T)=-62.669043\RMSD=3.6
 Normal termination of Gaussian 16 at Wed Feb 21 03:48:37 2018.
