 Gaussian 16, Revision A.03,
 Gaussian 16:  ES64L-G16RevA.03 25-Dec-2016

 ----------------------------------------------------------------------
 #P ROCCSD(T)=(maxcyc=150, Full)/Gen 5d 7f SCF=(maxcycles=300) Integral
 (NoXCTest) MaxDisk=500GB Pop=Regular Pseudo=Read Guess=Read
 ----------------------------------------------------------------------

 ---
 CrH
 ---
 Symbolic Z-matrix:
 Charge =  0 Multiplicity = 6

                         Standard orientation:
 ---------------------------------------------------------------------
 Center     Atomic      Atomic             Coordinates (Angstroms)
 Number     Number       Type             X           Y           Z
 ---------------------------------------------------------------------
      1         24           0        0.000000    0.000000    0.056000
      2          1           0        0.000000    0.000000   -1.344000
 ---------------------------------------------------------------------

 SCF Done:  E(ROHF) =  -86.6668510605     A.U. after   26 cycles
 E2 =    -0.5830538158D+00 EUMP2 =    -0.87249904876295D+02
 CCSD(T)
 CCSD(T)= -0.87283938563D+02

 The electronic state is 6-SG.
 Alpha  occ. eigenvalues --   -3.67282  -2.42690  -2.42690  -2.39449  -0.49426
 Alpha  occ. eigenvalues --   -0.49426  -0.46598  -0.46598  -0.43705  -0.25456
 Alpha virt. eigenvalues --    0.01516   0.01516   0.01877   0.02249   0.04628
 Alpha virt. eigenvalues --    0.05352   0.05352   0.05429   0.05429   0.05698
 Alpha virt. eigenvalues --    0.05698   0.06356   0.09487   0.12878   0.16887

 Mulliken charges and spin densities:
               1          2
     1  Cr   0.360496   4.983088
     2  H   -0.360496   0.016912
 Sum of Mulliken charges =  -0.00000   5.00000

 Dipole moment (field-independent basis, Debye):
    X=              0.0000    Y=              0.0000    Z=              1.9641  Tot=              1.9641
 Quadrupole moment (field-independent basis, Debye-Ang):
   XX=            -16.8389   YY=            -16.8389   ZZ=            -20.8228
   XY=              0.0000   XZ=              0.0000   YZ=              0.0000

 \\#P ROCCSD(T)=(maxcyc=150, Full)/Gen 5d 7f SCF=(maxcycles=300) Integr
 7.2499049\MP4SDQ=-87.2564815\CCSD=-87.2640721\CCSD(T)=-87.2839386\RMSD
 Normal termination of Gaussian 16 at Tue Feb 13 00:43:55 2018.
