 Gaussian 16, Revision A.03,
 Gaussian 16:  ES64L-G16RevA.03 25-Dec-2016

 ----------------------------------------------------------------------
 #P ROCCSD(T)=(maxcyc=150, Full)/Gen 5d 7f SCF=(maxcycles=300, NoVarAcc
 , VShift=200) MaxDisk=100GB Pop=Regular Pseudo=Read Guess=Read
 ----------------------------------------------------------------------

 --
 Mn
 --
 Symbolic Z-matrix:
 Charge =  0 Multiplicity = 6

                         Standard orientation:
 ---------------------------------------------------------------------
 Center     Atomic      Atomic             Coordinates (Angstroms)
 Number     Number       Type             X           Y           Z
 ---------------------------------------------------------------------
      1         25           0        0.000000    0.000000    0.000000
 ---------------------------------------------------------------------

 SCF Done:  E(ROHF) =  -103.690593481     A.U. after   20 cycles
 E2 =    -0.6105827402D+00 EUMP2 =    -0.10430117622103D+03
 CCSD(T)
 CCSD(T)= -0.10431891935D+03

 The electronic state is 6-A1G.
 Alpha  occ. eigenvalues --   -4.16389  -2.75298  -2.75298  -2.75298  -0.63540
 Alpha  occ. eigenvalues --   -0.63540  -0.63540  -0.63540  -0.63540  -0.26868
 Alpha virt. eigenvalues --    0.01744   0.01744   0.01744   0.02121   0.05598
 Alpha virt. eigenvalues --    0.05598   0.05598   0.05598   0.05598   0.05685
 Alpha virt. eigenvalues --    0.05685   0.05685   0.10411   0.17438   0.17438

 Mulliken charges and spin densities:
               1          2
     1  Mn  -0.000000   5.000000
 Sum of Mulliken charges =  -0.00000   5.00000

 Dipole moment (field-independent basis, Debye):
    X=              0.0000    Y=              0.0000    Z=              0.0000  Tot=              0.0000
 Quadrupole moment (field-independent basis, Debye-Ang):
   XX=            -18.6950   YY=            -18.6950   ZZ=            -18.6950
   XY=             -0.0000   XZ=             -0.0000   YZ=              0.0000

 1\1\GINC-C442-121\SP\ROCCSD(T)-Full\Gen\Mn1(6)\AANNABE\12-Mar-2018\0\\
 #P ROCCSD(T)=(maxcyc=150, Full)/Gen 5d 7f SCF=(maxcycles=300, NoVarAcc
 , VShift=200) MaxDisk=100GB Pop=Regular Pseudo=Read Guess=Read\\Mn\\0,
 6\Mn,0,0.,0.,0.\\Version=ES64L-G16RevA.03\State=6-A1G\HF=-103.6905935\
 MP2=-104.3011762\MP3=-104.2975137\PUHF=-103.6905935\PMP2-0=-104.301176
 2\MP4SDQ=-104.2999959\CCSD=-104.3001238\CCSD(T)=-104.3189193\RMSD=7.64
 3e-09\PG=OH [O(Mn1)]\\@

 Normal termination of Gaussian 16 at Mon Mar 12 15:03:23 2018.
