 Gaussian 16, Revision A.03,
 Gaussian 16:  ES64L-G16RevA.03 25-Dec-2016

 ----------------------------------------------------------------------
 #P ROCCSD(T)=(maxcyc=150, Full)/Gen 5d 7f SCF=(maxcycles=300) Integral
 (NoXCTest) MaxDisk=500GB Pop=Regular Pseudo=Read Guess=Read
 ----------------------------------------------------------------------

 ---
 MnH
 ---
 Symbolic Z-matrix:
 Charge =  0 Multiplicity = 7

                         Standard orientation:
 ---------------------------------------------------------------------
 Center     Atomic      Atomic             Coordinates (Angstroms)
 Number     Number       Type             X           Y           Z
 ---------------------------------------------------------------------
      1         25           0        0.000000    0.000000    0.065385
      2          1           0        0.000000    0.000000   -1.634615
 ---------------------------------------------------------------------

 SCF Done:  E(ROHF) =  -104.061180925     A.U. after   21 cycles
 E2 =    -0.5962182611D+00 EUMP2 =    -0.10465739918617D+03
 CCSD(T)
 CCSD(T)= -0.10467917268D+03

 The electronic state is 7-SG.
 Alpha  occ. eigenvalues --   -4.16289  -2.80996  -2.80996  -2.80788  -0.64456
 Alpha  occ. eigenvalues --   -0.64456  -0.64241  -0.63753  -0.63753  -0.40843
 Alpha  occ. eigenvalues --   -0.26152
 Alpha virt. eigenvalues --    0.01179   0.01179   0.02150   0.02926   0.05040
 Alpha virt. eigenvalues --    0.05040   0.05651   0.05805   0.05805   0.06196
 Alpha virt. eigenvalues --    0.06196   0.09059   0.13355   0.14114   0.18057

 Mulliken charges and spin densities:
               1          2
     1  Mn   0.363972   5.950714
     2  H   -0.363972   0.049286
 Sum of Mulliken charges =  -0.00000   6.00000

 Dipole moment (field-independent basis, Debye):
    X=              0.0000    Y=              0.0000    Z=              1.2957  Tot=              1.2957
 Quadrupole moment (field-independent basis, Debye-Ang):
   XX=            -16.1705   YY=            -16.1705   ZZ=            -26.3585
   XY=              0.0000   XZ=              0.0000   YZ=              0.0000

 \\#P ROCCSD(T)=(maxcyc=150, Full)/Gen 5d 7f SCF=(maxcycles=300) Integr
 0=-104.6573992\MP4SDQ=-104.6619431\CCSD=-104.6628611\CCSD(T)=-104.6791
 Normal termination of Gaussian 16 at Tue Feb 13 07:27:54 2018.
