 Gaussian 16, Revision A.03,
 Gaussian 16:  ES64L-G16RevA.03 25-Dec-2016

 ----------------------------------------------------------------------
 #P ROCCSD(T)=(maxcyc=150, Full, SaveAmplitudes, ReadAmplitudes)/Gen 5d
  7f SCF=(maxcycles=300) Integral(NoXCTest) MaxDisk=500GB Pop=Regular P
 seudo=Read Guess=Read
 ----------------------------------------------------------------------

 ---
 ScO
 ---
 Symbolic Z-matrix:
 Charge =  0 Multiplicity = 2

                         Standard orientation:
 ---------------------------------------------------------------------
 Center     Atomic      Atomic             Coordinates (Angstroms)
 Number     Number       Type             X           Y           Z
 ---------------------------------------------------------------------
      1         21           0        0.000000    0.000000    0.358621
      2          8           0        0.000000    0.000000   -0.941379
 ---------------------------------------------------------------------

 SCF Done:  E(ROHF) =  -61.8055466233     A.U. after   17 cycles
 E2 =    -0.6968660660D+00 EUMP2 =    -0.62502412689265D+02
 CCSD(T)
 CCSD(T)= -0.62528936517D+02

 The electronic state is 2-SG.
 Alpha  occ. eigenvalues --   -2.58770  -1.76308  -1.52568  -1.52568  -1.06661
 Alpha  occ. eigenvalues --   -0.57899  -0.57899  -0.47247  -0.19425
 Alpha virt. eigenvalues --    0.00954   0.00954   0.01883   0.02294   0.02811
 Alpha virt. eigenvalues --    0.02811   0.02894   0.02894   0.02894   0.04179
 Alpha virt. eigenvalues --    0.04179   0.06553   0.08075   0.08075   0.08550

 Mulliken charges and spin densities:
               1          2
     1  Sc   0.956003   1.008846
     2  O   -0.956003  -0.008846
 Sum of Mulliken charges =  -0.00000   1.00000

 Dipole moment (field-independent basis, Debye):
    X=              0.0000    Y=              0.0000    Z=              0.1647  Tot=              0.1647
 Quadrupole moment (field-independent basis, Debye-Ang):
   XX=            -22.7546   YY=            -22.7546   ZZ=            -29.5371
   XY=              0.0000   XZ=              0.0000   YZ=              0.0000

 \\#P ROCCSD(T)=(maxcyc=150, Full, SaveAmplitudes, ReadAmplitudes)/Gen
 055466\PMP2-0=-62.5024127\CCSD=-62.4971337\CCSD(T)=-62.5289365\RMSD=1.
 Normal termination of Gaussian 16 at Wed Mar  7 12:53:53 2018.
