 Gaussian 16, Revision A.03,
 Gaussian 16:  ES64L-G16RevA.03 25-Dec-2016

 ----------------------------------------------------------------------
 #P ROCCSD(T)=(maxcyc=150, Full, SaveAmplitudes, ReadAmplitudes)/Gen 5d
  7f SCF=(maxcycles=300) Integral(NoXCTest) MaxDisk=500GB Pop=Regular P
 seudo=Read Guess=Read
 ----------------------------------------------------------------------

 ---
 CrH
 ---
 Symbolic Z-matrix:
 Charge =  0 Multiplicity = 6

                         Standard orientation:
 ---------------------------------------------------------------------
 Center     Atomic      Atomic             Coordinates (Angstroms)
 Number     Number       Type             X           Y           Z
 ---------------------------------------------------------------------
      1         24           0        0.000000    0.000000    0.056000
      2          1           0        0.000000    0.000000   -1.344000
 ---------------------------------------------------------------------

 SCF Done:  E(ROHF) =  -86.8537373589     A.U. after   25 cycles
 E2 =    -0.5882587191D+00 EUMP2 =    -0.87441996077974D+02
 CCSD(T)
 CCSD(T)= -0.87476181980D+02

 The electronic state is 6-SG.
 Alpha  occ. eigenvalues --   -3.69905  -2.39757  -2.39757  -2.36461  -0.49849
 Alpha  occ. eigenvalues --   -0.49849  -0.46940  -0.46940  -0.43737  -0.25492
 Alpha virt. eigenvalues --    0.01536   0.01536   0.01907   0.02250   0.04651
 Alpha virt. eigenvalues --    0.05369   0.05369   0.05427   0.05427   0.05713
 Alpha virt. eigenvalues --    0.05713   0.06458   0.09483   0.12852   0.16876

 Mulliken charges and spin densities:
               1          2
     1  Cr   0.361975   4.981870
     2  H   -0.361975   0.018130
 Sum of Mulliken charges =  -0.00000   5.00000

 Dipole moment (field-independent basis, Debye):
    X=              0.0000    Y=              0.0000    Z=              1.9251  Tot=              1.9251
 Quadrupole moment (field-independent basis, Debye-Ang):
   XX=            -16.7346   YY=            -16.7346   ZZ=            -20.8046
   XY=              0.0000   XZ=              0.0000   YZ=              0.0000

 \\#P ROCCSD(T)=(maxcyc=150, Full, SaveAmplitudes, ReadAmplitudes)/Gen
 537374\PMP2-0=-87.4419961\CCSD=-87.4560226\CCSD(T)=-87.476182\RMSD=5.0
 Normal termination of Gaussian 16 at Mon Feb 26 03:37:03 2018.
