 Gaussian 16, Revision A.03,
 Gaussian 16:  ES64L-G16RevA.03 25-Dec-2016

 ----------------------------------------------------------------------
 #P ROCCSD(T)=(maxcyc=150, Full, SaveAmplitudes, ReadAmplitudes)/Gen 5d
  7f SCF=(maxcycles=300) Integral(NoXCTest) MaxDisk=500GB Pop=Regular P
 seudo=Read Guess=Read
 ----------------------------------------------------------------------

 ---
 CrO
 ---
 Symbolic Z-matrix:
 Charge =  0 Multiplicity = 5

                         Standard orientation:
 ---------------------------------------------------------------------
 Center     Atomic      Atomic             Coordinates (Angstroms)
 Number     Number       Type             X           Y           Z
 ---------------------------------------------------------------------
      1         24           0        0.000000    0.000000    0.450000
      2          8           0        0.000000    0.000000   -1.350000
 ---------------------------------------------------------------------

 SCF Done:  E(ROHF) =  -101.995263949     A.U. after   70 cycles
 E2 =    -0.8917686798D+00 EUMP2 =    -0.10288703262876D+03
 CCSD(T)
 CCSD(T)= -0.10293740265D+03

 Unable to determine electronic state:  an orbital has unidentified symmetry.
 Alpha  occ. eigenvalues --   -3.76803  -2.48556  -2.43591  -2.42759  -1.09815
 Alpha  occ. eigenvalues --   -0.57609  -0.56170  -0.55456  -0.52216  -0.34315
 Alpha  occ. eigenvalues --   -0.32986  -0.32716
 Alpha virt. eigenvalues --   -0.04572   0.00634   0.01181   0.01353   0.03096
 Alpha virt. eigenvalues --    0.04514   0.05192   0.05192   0.05598   0.06068
 Alpha virt. eigenvalues --    0.06156   0.06513   0.10606   0.11276   0.13112

 Mulliken charges and spin densities:
               1          2
     1  Cr   1.113390   3.946509
     2  O   -1.113390   0.053491
 Sum of Mulliken charges =  -0.00000   4.00000

 Dipole moment (field-independent basis, Debye):
    X=              0.0000    Y=              0.0000    Z=              9.7100  Tot=              9.7100
 Quadrupole moment (field-independent basis, Debye-Ang):
   XX=            -19.5404   YY=            -18.7293   ZZ=            -23.9796
   XY=              0.0000   XZ=              0.0000   YZ=              0.0000

 \\#P ROCCSD(T)=(maxcyc=150, Full, SaveAmplitudes, ReadAmplitudes)/Gen
 435\CCSD(T)=-102.9374026\RMSD=7.656e-09\PG=C*V [C*(O1Cr1)]\\@
 Normal termination of Gaussian 16 at Mon Mar 12 16:05:31 2018.
