 Gaussian 16, Revision A.03,
 Gaussian 16:  ES64L-G16RevA.03 25-Dec-2016

 ----------------------------------------------------------------------
 #P ROCCSD(T)=(maxcyc=150, Full, SaveAmplitudes, ReadAmplitudes)/Gen 5d
  7f SCF=(maxcycles=300) Integral(NoXCTest) MaxDisk=500GB Pop=Regular P
 seudo=Read Guess=Read IOp(5/15=2)
 ----------------------------------------------------------------------

 ---
 TiO
 ---
 Symbolic Z-matrix:
 Charge =  0 Multiplicity = 3

                         Standard orientation:
 ---------------------------------------------------------------------
 Center     Atomic      Atomic             Coordinates (Angstroms)
 Number     Number       Type             X           Y           Z
 ---------------------------------------------------------------------
      1         22           0        0.000000    0.000000    0.453333
      2          8           0        0.000000    0.000000   -1.246667
 ---------------------------------------------------------------------

 SCF Done:  E(ROHF) =  -73.2656841193     A.U. after   21 cycles
 E2 =    -0.7459789689D+00 EUMP2 =    -0.74011663088214D+02
 CCSD(T)
 CCSD(T)= -0.74043741149D+02

 Unable to determine electronic state:  an orbital has unidentified symmetry.
 Alpha  occ. eigenvalues --   -3.02823  -1.93823  -1.93823  -1.90872  -1.14667
 Alpha  occ. eigenvalues --   -0.47979  -0.45134  -0.42195  -0.42195  -0.27506
 Alpha virt. eigenvalues --   -0.00021  -0.00021   0.01233   0.02445   0.03849
 Alpha virt. eigenvalues --    0.03849   0.04510   0.04834   0.05131   0.05893
 Alpha virt. eigenvalues --    0.05893   0.06368   0.09551   0.11043   0.13034

 Mulliken charges and spin densities:
               1          2
     1  Ti   0.922597   1.991348
     2  O   -0.922597   0.008652
 Sum of Mulliken charges =  -0.00000   2.00000

 Dipole moment (field-independent basis, Debye):
    X=              0.0000    Y=              0.0000    Z=              5.1270  Tot=              5.1270
 Quadrupole moment (field-independent basis, Debye-Ang):
   XX=            -21.5887   YY=            -21.5887   ZZ=            -29.7679
   XY=              0.0000   XZ=              0.0000   YZ=              0.0000

 \\#P ROCCSD(T)=(maxcyc=150, Full, SaveAmplitudes, ReadAmplitudes)/Gen
 .9957846\CCSD(T)=-74.0437411\RMSD=9.468e-09\PG=C*V [C*(O1Ti1)]\\@
 Normal termination of Gaussian 16 at Sat Mar 10 02:02:05 2018.
