 Gaussian 16, Revision A.03,
 Gaussian 16:  ES64L-G16RevA.03 25-Dec-2016

 ----------------------------------------------------------------------
 #P ROCCSD(T)=(maxcyc=150, Full)/Gen 5d 7f SCF=(maxcycles=300) Integral
 (NoXCTest, DKHSO) MaxDisk=500GB Pop=Regular IOp(5/15=2) Guess=Read
 ----------------------------------------------------------------------

 ---
 MnH
 ---
 Symbolic Z-matrix:
 Charge =  0 Multiplicity = 7

                         Standard orientation:
 ---------------------------------------------------------------------
 Center     Atomic      Atomic             Coordinates (Angstroms)
 Number     Number       Type             X           Y           Z
 ---------------------------------------------------------------------
      1         25           0        0.000000    0.000000    0.080769
      2          1           0        0.000000    0.000000   -2.019231
 ---------------------------------------------------------------------

 SCF Done:  E(ROHF) =  -1157.93520421     A.U. after   25 cycles
 E2 =    -0.9546135764D+00 EUMP2 =    -0.11588898177839D+04
 CCSD(T)
 CCSD(T)= -0.11589021107D+04

 The electronic state is 7-SG.
 Alpha  occ. eigenvalues -- -242.52017 -29.62209 -24.97666 -24.97666 -24.97614
 Alpha  occ. eigenvalues --   -4.11175  -2.76502  -2.76502  -2.76226  -0.66016
 Alpha  occ. eigenvalues --   -0.66016  -0.65343  -0.65343  -0.65236  -0.38019
 Alpha  occ. eigenvalues --   -0.27214
 Alpha virt. eigenvalues --    0.00905   0.00905   0.02246   0.03164   0.05421
 Alpha virt. eigenvalues --    0.05421   0.07809   0.08336   0.08336   0.08844
 Alpha virt. eigenvalues --    0.08844   0.10518   0.13086   0.17615   0.22232

 Mulliken charges and spin densities:
               1          2
     1  Mn   0.438224   5.951936
     2  H   -0.438224   0.048064
 Sum of Mulliken charges =  -0.00000   6.00000

 Dipole moment (field-independent basis, Debye):
    X=              0.0000    Y=              0.0000    Z=              2.7970  Tot=              2.7970
 Quadrupole moment (field-independent basis, Debye-Ang):
   XX=            -16.8538   YY=            -16.8538   ZZ=            -29.0196
   XY=              0.0000   XZ=              0.0000   YZ=              0.0000

 \\#P ROCCSD(T)=(maxcyc=150, Full)/Gen 5d 7f SCF=(maxcycles=300) Integr
 Normal termination of Gaussian 16 at Wed Feb 14 22:39:12 2018.
