 Gaussian 16, Revision A.03,
 Gaussian 16:  ES64L-G16RevA.03 25-Dec-2016

 ----------------------------------------------------------------------
 #P ROCCSD(T)=(maxcyc=150, Full, SaveAmplitudes, ReadAmplitudes)/Gen 5d
  7f SCF=(maxcycles=300) Integral(NoXCTest) MaxDisk=500GB Pop=Regular P
 seudo=Read Guess=Read
 ----------------------------------------------------------------------

 ---
 MnO
 ---
 Symbolic Z-matrix:
 Charge =  0 Multiplicity = 6

                         Standard orientation:
 ---------------------------------------------------------------------
 Center     Atomic      Atomic             Coordinates (Angstroms)
 Number     Number       Type             X           Y           Z
 ---------------------------------------------------------------------
      1         25           0        0.000000    0.000000    0.436364
      2          8           0        0.000000    0.000000   -1.363636
 ---------------------------------------------------------------------

 SCF Done:  E(ROHF) =  -119.135486241     A.U. after   23 cycles
 E2 =    -0.9292270513D+00 EUMP2 =    -0.12006471329226D+03
 CCSD(T)
 CCSD(T)= -0.12009099786D+03

 The electronic state is 6-SG.
 Alpha  occ. eigenvalues --   -4.24336  -2.80087  -2.80087  -2.79505  -1.09733
 Alpha  occ. eigenvalues --   -0.65237  -0.65237  -0.64959  -0.64959  -0.61735
 Alpha  occ. eigenvalues --   -0.33761  -0.33761  -0.33208
 Alpha virt. eigenvalues --   -0.05225   0.01174   0.01174   0.01409   0.03358
 Alpha virt. eigenvalues --    0.05689   0.05689   0.05712   0.05712   0.06387
 Alpha virt. eigenvalues --    0.06903   0.06903   0.10996   0.12598   0.17840

 Mulliken charges and spin densities:
               1          2
     1  Mn   1.125546   4.937868
     2  O   -1.125546   0.062132
 Sum of Mulliken charges =  -0.00000   5.00000

 Dipole moment (field-independent basis, Debye):
    X=              0.0000    Y=              0.0000    Z=              9.4681  Tot=              9.4681
 Quadrupole moment (field-independent basis, Debye-Ang):
   XX=            -19.0768   YY=            -19.0768   ZZ=            -24.6526
   XY=              0.0000   XZ=              0.0000   YZ=              0.0000

 \\#P ROCCSD(T)=(maxcyc=150, Full, SaveAmplitudes, ReadAmplitudes)/Gen
 9.1354862\PMP2-0=-120.0647133\CCSD=-120.0482007\CCSD(T)=-120.0909979\R
 Normal termination of Gaussian 16 at Tue Mar 13 16:06:28 2018.
