 Gaussian 16, Revision A.03,
 Gaussian 16:  ES64L-G16RevA.03 25-Dec-2016

 ----------------------------------------------------------------------
 #P ROCCSD(T)=(MaxCyc=150, Full)/Gen SCF=(maxcycle=400, vshift=200) Pse
 udo=Read Integral(NoXCTest) Pop=Regular MaxDisk=500GB Guess=Read IOp(5
 /15=2)
 ----------------------------------------------------------------------

 ---
 ZnH
 ---
 Symbolic Z-matrix:
 Charge =  0 Multiplicity = 2

                         Standard orientation:
 ---------------------------------------------------------------------
 Center     Atomic      Atomic             Coordinates (Angstroms)
 Number     Number       Type             X           Y           Z
 ---------------------------------------------------------------------
      1         30           0        0.000000    0.000000    0.045161
      2          1           0        0.000000    0.000000   -1.354839
 ---------------------------------------------------------------------

 SCF Done:  E(ROHF) =  -226.142391287     A.U. after   20 cycles
 E2 =    -0.1113276214D+01 EUMP2 =    -0.22725566750114D+03
 CCSD(T)
 CCSD(T)= -0.22720391533D+03

 The electronic state is 2-SG.
 Alpha  occ. eigenvalues --   -5.88421  -4.00072  -3.99995  -3.99995  -0.80620
 Alpha  occ. eigenvalues --   -0.79859  -0.79859  -0.79492  -0.79492  -0.47611
 Alpha  occ. eigenvalues --   -0.27299
 Alpha virt. eigenvalues --    0.01937   0.01937   0.02256   0.03330   0.06352
 Alpha virt. eigenvalues --    0.06352   0.06883   0.11867   0.13925   0.15340
 Alpha virt. eigenvalues --    0.15340   0.15503   0.15503   0.18726   0.20769

 Mulliken charges and spin densities:
               1          2
     1  Zn   0.263674   0.936491
     2  H   -0.263674   0.063509
 Sum of Mulliken charges =  -0.00000   1.00000

 Dipole moment (field-independent basis, Debye):
    X=              0.0000    Y=              0.0000    Z=              0.2140  Tot=              0.2140
 Quadrupole moment (field-independent basis, Debye-Ang):
   XX=            -14.4729   YY=            -14.4729   ZZ=            -20.7233
   XY=              0.0000   XZ=              0.0000   YZ=              0.0000

 \\#P ROCCSD(T)=(MaxCyc=150, Full)/Gen SCF=(maxcycle=400, vshift=200) P
 Normal termination of Gaussian 16 at Sun Apr 29 00:38:53 2018.
