 Gaussian 16, Revision A.03,
 Gaussian 16:  ES64L-G16RevA.03 25-Dec-2016

 ----------------------------------------------------------------------
 #P ROCCSD(T)=(MaxCyc=150, Full)/Gen SCF=(maxcycle=400, vshift=200) Pse
 udo=Read Integral(NoXCTest) Pop=Regular MaxDisk=500GB Guess=Read IOp(5
 /15=2)
 ----------------------------------------------------------------------

 ---
 ZnH
 ---
 Symbolic Z-matrix:
 Charge =  0 Multiplicity = 2

                         Standard orientation:
 ---------------------------------------------------------------------
 Center     Atomic      Atomic             Coordinates (Angstroms)
 Number     Number       Type             X           Y           Z
 ---------------------------------------------------------------------
      1         30           0        0.000000    0.000000    0.045161
      2          1           0        0.000000    0.000000   -1.354839
 ---------------------------------------------------------------------

 SCF Done:  E(ROHF) =  -226.142277115     A.U. after   17 cycles
 E2 =    -0.1086776864D+01 EUMP2 =    -0.22722905397909D+03
 CCSD(T)
 CCSD(T)= -0.22717926491D+03

 The electronic state is 2-SG.
 Alpha  occ. eigenvalues --   -5.88421  -4.00073  -3.99997  -3.99997  -0.80621
 Alpha  occ. eigenvalues --   -0.79860  -0.79860  -0.79492  -0.79492  -0.47610
 Alpha  occ. eigenvalues --   -0.27298
 Alpha virt. eigenvalues --    0.01999   0.01999   0.02615   0.03685   0.06773
 Alpha virt. eigenvalues --    0.06773   0.07932   0.14295   0.17531   0.17893
 Alpha virt. eigenvalues --    0.17893   0.18180   0.18180   0.21505   0.23254

 Mulliken charges and spin densities:
               1          2
     1  Zn   0.282826   0.937737
     2  H   -0.282826   0.062263
 Sum of Mulliken charges =  -0.00000   1.00000

 Dipole moment (field-independent basis, Debye):
    X=              0.0000    Y=              0.0000    Z=              0.2140  Tot=              0.2140
 Quadrupole moment (field-independent basis, Debye-Ang):
   XX=            -14.4742   YY=            -14.4742   ZZ=            -20.7243
   XY=              0.0000   XZ=              0.0000   YZ=              0.0000

 \\#P ROCCSD(T)=(MaxCyc=150, Full)/Gen SCF=(maxcycle=400, vshift=200) P
 Normal termination of Gaussian 16 at Sat Apr 21 11:17:58 2018.
