 Gaussian 16, Revision A.03,
 Gaussian 16:  ES64L-G16RevA.03 25-Dec-2016

 ----------------------------------------------------------------------
 #P ROCCSD(T)=(MaxCyc=150, Full)/Gen SCF=(maxcycle=400, vshift=200) Pse
 udo=Read Integral(NoXCTest) Pop=Regular MaxDisk=500GB Guess=Read IOp(5
 /15=2)
 ----------------------------------------------------------------------

 ---
 ZnH
 ---
 Symbolic Z-matrix:
 Charge =  0 Multiplicity = 2

                         Standard orientation:
 ---------------------------------------------------------------------
 Center     Atomic      Atomic             Coordinates (Angstroms)
 Number     Number       Type             X           Y           Z
 ---------------------------------------------------------------------
      1         30           0        0.000000    0.000000    0.045161
      2          1           0        0.000000    0.000000   -1.354839
 ---------------------------------------------------------------------

 SCF Done:  E(ROHF) =  -226.141277026     A.U. after   26 cycles
 E2 =    -0.1031793907D+01 EUMP2 =    -0.22717307093265D+03
 CCSD(T)
 CCSD(T)= -0.22712413715D+03

 The electronic state is 2-SG.
 Alpha  occ. eigenvalues --   -5.88430  -4.00084  -4.00010  -4.00010  -0.80624
 Alpha  occ. eigenvalues --   -0.79865  -0.79865  -0.79495  -0.79495  -0.47613
 Alpha  occ. eigenvalues --   -0.27297
 Alpha virt. eigenvalues --    0.02124   0.02124   0.02765   0.04037   0.07726
 Alpha virt. eigenvalues --    0.07726   0.08899   0.15862   0.18925   0.24392
 Alpha virt. eigenvalues --    0.24392   0.25094   0.25094   0.26067   0.28985

 Mulliken charges and spin densities:
               1          2
     1  Zn   0.306851   0.950940
     2  H   -0.306851   0.049060
 Sum of Mulliken charges =  -0.00000   1.00000

 Dipole moment (field-independent basis, Debye):
    X=              0.0000    Y=              0.0000    Z=              0.2130  Tot=              0.2130
 Quadrupole moment (field-independent basis, Debye-Ang):
   XX=            -14.4784   YY=            -14.4784   ZZ=            -20.7222
   XY=              0.0000   XZ=              0.0000   YZ=              0.0000

 \\#P ROCCSD(T)=(MaxCyc=150, Full)/Gen SCF=(maxcycle=400, vshift=200) P
 Normal termination of Gaussian 16 at Sat Apr 21 10:25:04 2018.
