 Gaussian 16, Revision A.03,
 Gaussian 16:  ES64L-G16RevA.03 25-Dec-2016

 ----------------------------------------------------------------------
 #P ROCCSD(T)=(maxcyc=150, Full, SaveAmplitudes, ReadAmplitudes)/Gen 5d
  7f SCF=(maxcycles=300, VShift=400) Integral(NoXCTest) MaxDisk=500GB P
 op=Full Pseudo=Read Guess=Read IOp(5/15=2)
 ----------------------------------------------------------------------

 ---
 CrO
 ---
 Symbolic Z-matrix:
 Charge =  0 Multiplicity = 5

                         Standard orientation:
 ---------------------------------------------------------------------
 Center     Atomic      Atomic             Coordinates (Angstroms)
 Number     Number       Type             X           Y           Z
 ---------------------------------------------------------------------
      1         24           0        0.000000    0.000000    0.425000
      2          8           0        0.000000    0.000000   -1.275000
 ---------------------------------------------------------------------

 SCF Done:  E(ROHF) =  -101.497868566     A.U. after   89 cycles
 E2 =    -0.8625381933D+00 EUMP2 =    -0.10236040675929D+03
 CCSD(T)
 CCSD(T)= -0.10240416452D+03

 Unable to determine electronic state:  an orbital has unidentified symmetry.
 Alpha  occ. eigenvalues --   -3.74470  -2.47064  -2.42427  -2.41195  -1.12247
 Alpha  occ. eigenvalues --   -0.56238  -0.55936  -0.54266  -0.49552  -0.36912
 Alpha  occ. eigenvalues --   -0.34146  -0.32882
 Alpha virt. eigenvalues --   -0.03229   0.00900   0.01590   0.02274   0.03721
 Alpha virt. eigenvalues --    0.05088   0.06388   0.07515   0.07531   0.07699
 Alpha virt. eigenvalues --    0.08303   0.08780   0.13284   0.14552   0.15667

 Mulliken charges and spin densities:
               1          2
     1  Cr   1.167134   3.901397
     2  O   -1.167134   0.098603
 Sum of Mulliken charges =  -0.00000   4.00000

 Dipole moment (field-independent basis, Debye):
    X=              0.0000    Y=              0.0000    Z=              8.7425  Tot=              8.7425
 Quadrupole moment (field-independent basis, Debye-Ang):
   XX=            -19.8164   YY=            -18.7909   ZZ=            -23.1964
   XY=              0.0000   XZ=              0.0000   YZ=              0.0000

 \\#P ROCCSD(T)=(maxcyc=150, Full, SaveAmplitudes, ReadAmplitudes)/Gen
 694706\CCSD=-102.3540033\CCSD(T)=-102.4041645\RMSD=9.192e-09\PG=C*V [C
 Normal termination of Gaussian 16 at Fri Apr  6 11:32:24 2018.
