 Gaussian 16, Revision A.03,
 Gaussian 16:  ES64L-G16RevA.03 25-Dec-2016

 ----------------------------------------------------------------------
 #P ROCCSD(T)=(maxcyc=150, Full, SaveAmplitudes, ReadAmplitudes)/Gen 5d
  7f SCF=(maxcycles=300) Integral(NoXCTest, DKHSO) MaxDisk=500GB Pop=Re
 gular Guess=Read IOp(5/15=2)
 ----------------------------------------------------------------------

 ---
 CrO
 ---
 Symbolic Z-matrix:
 Charge =  0 Multiplicity = 5

                         Standard orientation:
 ---------------------------------------------------------------------
 Center     Atomic      Atomic             Coordinates (Angstroms)
 Number     Number       Type             X           Y           Z
 ---------------------------------------------------------------------
      1         24           0        0.000000    0.000000    0.425000
      2          8           0        0.000000    0.000000   -1.275000
 ---------------------------------------------------------------------

 SCF Done:  E(ROHF) =  -1124.49674583     A.U. after   44 cycles
 E2 =    -0.1299682037D+01 EUMP2 =    -0.11257964278709D+04
 CCSD(T)
 CCSD(T)= -0.11258277261D+04

 Unable to determine electronic state:  an orbital has unidentified symmetry.
 Alpha  occ. eigenvalues -- -222.23818 -26.83187 -22.46817 -22.46687 -22.46031
 Alpha  occ. eigenvalues --  -20.45467  -3.68410  -2.45144  -2.41158  -2.39990
 Alpha  occ. eigenvalues --   -1.10904  -0.56136  -0.55848  -0.54191  -0.49249
 Alpha  occ. eigenvalues --   -0.36862  -0.34092  -0.32852
 Alpha virt. eigenvalues --   -0.03254   0.00874   0.01577   0.02258   0.03722
 Alpha virt. eigenvalues --    0.05060   0.06355   0.07514   0.07530   0.07702
 Alpha virt. eigenvalues --    0.08302   0.08767   0.13308   0.14661   0.15617

 Mulliken charges and spin densities:
               1          2
     1  Cr   1.167145   3.901909
     2  O   -1.167145   0.098091
 Sum of Mulliken charges =  -0.00000   4.00000

 Dipole moment (field-independent basis, Debye):
    X=             -0.0000    Y=             -0.0000    Z=              8.7580  Tot=              8.7580
 Quadrupole moment (field-independent basis, Debye-Ang):
   XX=            -20.1880   YY=            -19.1474   ZZ=            -23.4997
   XY=             -0.0000   XZ=             -0.0000   YZ=             -0.0000

 \\#P ROCCSD(T)=(maxcyc=150, Full, SaveAmplitudes, ReadAmplitudes)/Gen
 CSD=-1125.7760865\CCSD(T)=-1125.8277261\RMSD=9.445e-09\PG=C*V [C*(O1Cr
 Normal termination of Gaussian 16 at Wed Mar  7 01:31:53 2018.
