 Gaussian 16, Revision A.03,
 Gaussian 16:  ES64L-G16RevA.03 25-Dec-2016

 ----------------------------------------------------------------------
 #P ROCCSD(T)=(MaxCyc=150, Full)/Gen SCF=(maxcycle=400, vshift=200) Int
 egral(DKHSO, NoXCTest) Pop=Regular MaxDisk=500GB Guess=Read IOp(5/15=2
 )
 ----------------------------------------------------------------------

 ---
 CoH
 ---
 Symbolic Z-matrix:
 Charge =  0 Multiplicity = 3

                         Standard orientation:
 ---------------------------------------------------------------------
 Center     Atomic      Atomic             Coordinates (Angstroms)
 Number     Number       Type             X           Y           Z
 ---------------------------------------------------------------------
      1         27           0        0.000000    0.000000    0.050000
      2          1           0        0.000000    0.000000   -1.350000
 ---------------------------------------------------------------------

 SCF Done:  E(ROHF) =  -1392.34663335     A.U. after   72 cycles
 E2 =    -0.1283174457D+01 EUMP2 =    -0.13936298078101D+04
 CCSD(T)
 CCSD(T)= -0.13935876540D+04

 Unable to determine electronic state:  partially filled degenerate orbitals.
 Alpha  occ. eigenvalues -- -285.58649 -35.27960 -30.04997 -30.04997 -30.04690
 Alpha  occ. eigenvalues --   -4.49466  -2.93128  -2.93006  -2.93006  -0.49533
 Alpha  occ. eigenvalues --   -0.48698  -0.44085  -0.44085  -0.44073  -0.32451
 Alpha virt. eigenvalues --    0.00313   0.02705   0.02705   0.03245   0.05298
 Alpha virt. eigenvalues --    0.09442   0.09442   0.10233   0.11373   0.11415
 Alpha virt. eigenvalues --    0.11490   0.11567   0.11567   0.18976   0.25738

 Mulliken charges and spin densities:
               1          2
     1  Co   0.350945   1.972788
     2  H   -0.350945   0.027212
 Sum of Mulliken charges =  -0.00000   2.00000

 Dipole moment (field-independent basis, Debye):
    X=              0.0000    Y=              0.0000    Z=              4.0732  Tot=              4.0732
 Quadrupole moment (field-independent basis, Debye-Ang):
   XX=            -14.1519   YY=            -14.1519   ZZ=            -17.3363
   XY=              0.0000   XZ=              0.0000   YZ=              0.0000

 \\#P ROCCSD(T)=(MaxCyc=150, Full)/Gen SCF=(maxcycle=400, vshift=200) I
 2-0=-1393.6298078\MP4SDQ=-1393.5871889\CCSD=-1393.5549081\CCSD(T)=-139
 Normal termination of Gaussian 16 at Sat Apr 21 22:06:35 2018.
