 Gaussian 16, Revision A.03,
 Gaussian 16:  ES64L-G16RevA.03 25-Dec-2016

 ----------------------------------------------------------------------
 #P ROCCSD(T)=(MaxCyc=150, Full)/Gen SCF=(maxcycle=400, vshift=200) Int
 egral(DKHSO, NoXCTest) Pop=Regular MaxDisk=500GB Guess=Read IOp(5/15=2
 )
 ----------------------------------------------------------------------

 ---
 CoH
 ---
 Symbolic Z-matrix:
 Charge =  0 Multiplicity = 3

                         Standard orientation:
 ---------------------------------------------------------------------
 Center     Atomic      Atomic             Coordinates (Angstroms)
 Number     Number       Type             X           Y           Z
 ---------------------------------------------------------------------
      1         27           0        0.000000    0.000000    0.050000
      2          1           0        0.000000    0.000000   -1.350000
 ---------------------------------------------------------------------

 SCF Done:  E(ROHF) =  -1392.34866886     A.U. after   32 cycles
 E2 =    -0.1340063831D+01 EUMP2 =    -0.13936887326928D+04
 CCSD(T)
 CCSD(T)= -0.13936452090D+04

 Unable to determine electronic state:  partially filled degenerate orbitals.
 Alpha  occ. eigenvalues -- -285.58640 -35.27936 -30.04971 -30.04971 -30.04663
 Alpha  occ. eigenvalues --   -4.49453  -2.93117  -2.92995  -2.92995  -0.49536
 Alpha  occ. eigenvalues --   -0.48700  -0.44093  -0.44093  -0.44077  -0.32449
 Alpha virt. eigenvalues --    0.00280   0.02457   0.02457   0.02954   0.05047
 Alpha virt. eigenvalues --    0.06994   0.07366   0.07380   0.07557   0.07557
 Alpha virt. eigenvalues --    0.08631   0.08631   0.09937   0.18958   0.20237

 Mulliken charges and spin densities:
               1          2
     1  Co   0.357613   1.991495
     2  H   -0.357613   0.008505
 Sum of Mulliken charges =  -0.00000   2.00000

 Dipole moment (field-independent basis, Debye):
    X=              0.0000    Y=              0.0000    Z=              4.0699  Tot=              4.0699
 Quadrupole moment (field-independent basis, Debye-Ang):
   XX=            -14.1402   YY=            -14.1402   ZZ=            -17.3382
   XY=              0.0000   XZ=              0.0000   YZ=              0.0000

 \\#P ROCCSD(T)=(MaxCyc=150, Full)/Gen SCF=(maxcycle=400, vshift=200) I
 PMP2-0=-1393.6887327\MP4SDQ=-1393.6423655\CCSD=-1393.6107548\CCSD(T)=-
 Normal termination of Gaussian 16 at Sat Apr 21 22:45:47 2018.
