 Gaussian 16, Revision A.03,
 Gaussian 16:  ES64L-G16RevA.03 25-Dec-2016

 ----------------------------------------------------------------------
 #P ROCCSD(T)=(maxcyc=150, Full, SaveAmplitudes, ReadAmplitudes)/Gen 5d
  7f SCF=(maxcycles=300) Integral(NoXCTest) MaxDisk=500GB Pop=Regular P
 seudo=Read Guess=Read IOp(5/15=2)
 ----------------------------------------------------------------------

 ---
 MnO
 ---
 Symbolic Z-matrix:
 Charge =  0 Multiplicity = 6

                         Standard orientation:
 ---------------------------------------------------------------------
 Center     Atomic      Atomic             Coordinates (Angstroms)
 Number     Number       Type             X           Y           Z
 ---------------------------------------------------------------------
      1         25           0        0.000000    0.000000    0.460606
      2          8           0        0.000000    0.000000   -1.439394
 ---------------------------------------------------------------------

 SCF Done:  E(ROHF) =  -119.166875530     A.U. after   33 cycles
 E2 =    -0.8842648505D+00 EUMP2 =    -0.12005114037997D+03
 CCSD(T)
 CCSD(T)= -0.12007855401D+03

 The electronic state is 6-SG.
 Alpha  occ. eigenvalues --   -4.25550  -2.81161  -2.81161  -2.80681  -1.10339
 Alpha  occ. eigenvalues --   -0.66034  -0.66034  -0.65946  -0.65946  -0.63439
 Alpha  occ. eigenvalues --   -0.34746  -0.34746  -0.32291
 Alpha virt. eigenvalues --   -0.05314   0.01300   0.01300   0.01623   0.03800
 Alpha virt. eigenvalues --    0.06253   0.06253   0.08235   0.08312   0.08312
 Alpha virt. eigenvalues --    0.09306   0.09306   0.12685   0.13905   0.22489

 Mulliken charges and spin densities:
               1          2
     1  Mn   1.062289   4.954056
     2  O   -1.062289   0.045944
 Sum of Mulliken charges =  -0.00000   5.00000

 Dipole moment (field-independent basis, Debye):
    X=              0.0000    Y=              0.0000    Z=              9.2653  Tot=              9.2653
 Quadrupole moment (field-independent basis, Debye-Ang):
   XX=            -19.3501   YY=            -19.3501   ZZ=            -25.2487
   XY=              0.0000   XZ=              0.0000   YZ=              0.0000

 \\#P ROCCSD(T)=(maxcyc=150, Full, SaveAmplitudes, ReadAmplitudes)/Gen
 .0469943\CCSD=-120.03921\CCSD(T)=-120.078554\RMSD=5.100e-09\PG=C*V [C*
 Normal termination of Gaussian 16 at Wed Mar 14 07:45:59 2018.
