 Gaussian 16, Revision A.03,
 Gaussian 16:  ES64L-G16RevA.03 25-Dec-2016

 ----------------------------------------------------------------------
 #P ROCCSD(T)=(maxcyc=150, Full, SaveAmplitudes, ReadAmplitudes)/Gen 5d
  7f SCF=(maxcycles=300) Integral(NoXCTest) MaxDisk=500GB Pop=Regular P
 seudo=Read Guess=Read
 ----------------------------------------------------------------------

 ---
 CrO
 ---
 Symbolic Z-matrix:
 Charge =  0 Multiplicity = 5

                         Standard orientation:
 ---------------------------------------------------------------------
 Center     Atomic      Atomic             Coordinates (Angstroms)
 Number     Number       Type             X           Y           Z
 ---------------------------------------------------------------------
      1         24           0        0.000000    0.000000    0.375000
      2          8           0        0.000000    0.000000   -1.125000
 ---------------------------------------------------------------------

 SCF Done:  E(ROHF) =  -102.000982244     A.U. after   24 cycles
 E2 =    -0.9297348185D+00 EUMP2 =    -0.10293071706275D+03
 CCSD(T)
 CCSD(T)= -0.10295299050D+03

 Unable to determine electronic state:  an orbital has unidentified symmetry.
 Alpha  occ. eigenvalues --   -3.70981  -2.48588  -2.44572  -2.41671  -1.21373
 Alpha  occ. eigenvalues --   -0.63415  -0.57670  -0.56067  -0.50439  -0.48117
 Alpha  occ. eigenvalues --   -0.39820  -0.30237
 Alpha virt. eigenvalues --    0.00635   0.01052   0.01765   0.02738   0.04130
 Alpha virt. eigenvalues --    0.04415   0.05334   0.05336   0.05461   0.05768
 Alpha virt. eigenvalues --    0.06061   0.06457   0.10570   0.13182   0.13195

 Mulliken charges and spin densities:
               1          2
     1  Cr   1.035017   3.893537
     2  O   -1.035017   0.106463
 Sum of Mulliken charges =  -0.00000   4.00000

 Dipole moment (field-independent basis, Debye):
    X=              0.0000    Y=              0.0000    Z=              4.4056  Tot=              4.4056
 Quadrupole moment (field-independent basis, Debye-Ang):
   XX=            -20.7701   YY=            -19.6535   ZZ=            -24.5425
   XY=              0.0000   XZ=              0.0000   YZ=              0.0000

 \\#P ROCCSD(T)=(maxcyc=150, Full, SaveAmplitudes, ReadAmplitudes)/Gen
 MP2-0=-102.9307171\CCSD=-102.9028598\CCSD(T)=-102.9529905\RMSD=3.290e-
 Normal termination of Gaussian 16 at Tue Mar 13 06:37:59 2018.
