 Gaussian 16, Revision A.03,
 Gaussian 16:  ES64L-G16RevA.03 25-Dec-2016

 ----------------------------------------------------------------------
 #P ROCCSD(T)=(maxcyc=100, Full)/Gen SCF=(maxcycle=400, symm) Pseudo=Re
 ad Integral(NoXCTest) Pop=Regular MaxDisk=500GB Guess=Permute IOp(5/15
 =2)
 ----------------------------------------------------------------------

 ---
 FeH
 ---
 Symbolic Z-matrix:
 Charge =  0 Multiplicity = 4

                         Standard orientation:
 ---------------------------------------------------------------------
 Center     Atomic      Atomic             Coordinates (Angstroms)
 Number     Number       Type             X           Y           Z
 ---------------------------------------------------------------------
      1         26           0        0.000000    0.000000    0.059259
      2          1           0        0.000000    0.000000   -1.540741
 ---------------------------------------------------------------------

 SCF Done:  E(ROHF) =  -123.508571154     A.U. after   44 cycles
 E2 =    -0.8076514089D+00 EUMP2 =    -0.12431622256254D+03
 CCSD(T)
 CCSD(T)= -0.12431542714D+03

 Unable to determine electronic state:  an orbital has unidentified symmetry.
 Alpha  occ. eigenvalues --   -4.37962  -2.80385  -2.79794  -2.79794  -0.49923
 Alpha  occ. eigenvalues --   -0.49923  -0.49182  -0.44757  -0.44217  -0.31882
 Alpha virt. eigenvalues --   -0.00483   0.02134   0.02134   0.02618   0.03370
 Alpha virt. eigenvalues --    0.05776   0.06208   0.06218   0.06346   0.06346
 Alpha virt. eigenvalues --    0.07392   0.07392   0.08639   0.12960   0.16603

 Mulliken charges and spin densities:
               1          2
     1  Fe   0.293160   2.995586
     2  H   -0.293160   0.004414
 Sum of Mulliken charges =  -0.00000   3.00000

 Dipole moment (field-independent basis, Debye):
    X=              0.0000    Y=              0.0000    Z=              4.4162  Tot=              4.4162
 Quadrupole moment (field-independent basis, Debye-Ang):
   XX=            -15.6217   YY=            -15.6217   ZZ=            -17.5302
   XY=              0.0000   XZ=              0.0000   YZ=              0.0000

 \\#P ROCCSD(T)=(maxcyc=100, Full)/Gen SCF=(maxcycle=400, symm) Pseudo=
 2857267\CCSD(T)=-124.3154271\RMSD=5.747e-09\PG=C*V [C*(H1Fe1)]\\@
 Normal termination of Gaussian 16 at Mon Feb 12 22:52:01 2018.
