 Gaussian 16, Revision A.03,
 Gaussian 16:  ES64L-G16RevA.03 25-Dec-2016

 ----------------------------------------------------------------------
 #P ROCCSD(T)=(maxcyc=100, Full)/Gen SCF=(maxcycle=400, symm) Pseudo=Re
 ad Integral(NoXCTest) Pop=Regular MaxDisk=500GB Guess=Permute IOp(5/15
 =2)
 ----------------------------------------------------------------------

 ---
 FeH
 ---
 Symbolic Z-matrix:
 Charge =  0 Multiplicity = 4

                         Standard orientation:
 ---------------------------------------------------------------------
 Center     Atomic      Atomic             Coordinates (Angstroms)
 Number     Number       Type             X           Y           Z
 ---------------------------------------------------------------------
      1         26           0        0.000000    0.000000    0.059259
      2          1           0        0.000000    0.000000   -1.540741
 ---------------------------------------------------------------------

 SCF Done:  E(ROHF) =  -123.503141909     A.U. after   30 cycles
 E2 =    -0.7935399491D+00 EUMP2 =    -0.12429668185765D+03
 CCSD(T)
 CCSD(T)= -0.12429792988D+03

 Unable to determine electronic state:  partially filled degenerate orbitals.
 Alpha  occ. eigenvalues --   -4.37850  -2.80428  -2.79837  -2.79837  -0.49922
 Alpha  occ. eigenvalues --   -0.49922  -0.49182  -0.44753  -0.44212  -0.31879
 Alpha virt. eigenvalues --   -0.00456   0.02201   0.02201   0.02939   0.03905
 Alpha virt. eigenvalues --    0.06229   0.06778   0.06791   0.06863   0.06863
 Alpha virt. eigenvalues --    0.07745   0.07745   0.09878   0.16371   0.17903

 Mulliken charges and spin densities:
               1          2
     1  Fe   0.346747   2.999009
     2  H   -0.346747   0.000991
 Sum of Mulliken charges =  -0.00000   3.00000

 Dipole moment (field-independent basis, Debye):
    X=              0.0000    Y=              0.0000    Z=              4.4178  Tot=              4.4178
 Quadrupole moment (field-independent basis, Debye-Ang):
   XX=            -15.6248   YY=            -15.6248   ZZ=            -17.5306
   XY=              0.0000   XZ=              0.0000   YZ=              0.0000

 \\#P ROCCSD(T)=(maxcyc=100, Full)/Gen SCF=(maxcycle=400, symm) Pseudo=
 2688223\CCSD(T)=-124.2979299\RMSD=1.046e-09\PG=C*V [C*(H1Fe1)]\\@
 Normal termination of Gaussian 16 at Mon Feb 12 21:04:15 2018.
