 Gaussian 16, Revision A.03,
 Gaussian 16:  ES64L-G16RevA.03 25-Dec-2016

 ----------------------------------------------------------------------
 #P ROCCSD(T)=(maxcyc=100, Full)/Gen SCF=(maxcycle=400, symm) Pseudo=Re
 ad Integral(NoXCTest) Pop=Regular MaxDisk=500GB Guess=Permute IOp(5/15
 =2)
 ----------------------------------------------------------------------

 ---
 FeH
 ---
 Symbolic Z-matrix:
 Charge =  0 Multiplicity = 4

                         Standard orientation:
 ---------------------------------------------------------------------
 Center     Atomic      Atomic             Coordinates (Angstroms)
 Number     Number       Type             X           Y           Z
 ---------------------------------------------------------------------
      1         26           0        0.000000    0.000000    0.059259
      2          1           0        0.000000    0.000000   -1.540741
 ---------------------------------------------------------------------

 SCF Done:  E(ROHF) =  -123.507253626     A.U. after   33 cycles
 E2 =    -0.7581577637D+00 EUMP2 =    -0.12426541138986D+03
 CCSD(T)
 CCSD(T)= -0.12426875733D+03

 Unable to determine electronic state:  an orbital has unidentified symmetry.
 Alpha  occ. eigenvalues --   -4.38013  -2.80403  -2.79809  -2.79809  -0.49922
 Alpha  occ. eigenvalues --   -0.49922  -0.49179  -0.44743  -0.44208  -0.31879
 Alpha virt. eigenvalues --   -0.00439   0.02437   0.02437   0.03217   0.04172
 Alpha virt. eigenvalues --    0.08459   0.08459   0.09572   0.10218   0.10258
 Alpha virt. eigenvalues --    0.10399   0.10399   0.10773   0.17159   0.23715

 Mulliken charges and spin densities:
               1          2
     1  Fe   0.426035   2.997211
     2  H   -0.426035   0.002789
 Sum of Mulliken charges =  -0.00000   3.00000

 Dipole moment (field-independent basis, Debye):
    X=              0.0000    Y=              0.0000    Z=              4.4204  Tot=              4.4204
 Quadrupole moment (field-independent basis, Debye-Ang):
   XX=            -15.6387   YY=            -15.6387   ZZ=            -17.5166
   XY=              0.0000   XZ=              0.0000   YZ=              0.0000

 \\#P ROCCSD(T)=(maxcyc=100, Full)/Gen SCF=(maxcycle=400, symm) Pseudo=
 2413583\CCSD(T)=-124.2687573\RMSD=4.082e-09\PG=C*V [C*(H1Fe1)]\\@
 Normal termination of Gaussian 16 at Mon Feb 12 20:24:26 2018.
