 Gaussian 16, Revision A.03,
 Gaussian 16:  ES64L-G16RevA.03 25-Dec-2016

 ----------------------------------------------------------------------
 #P ROCCSD(T)=(MaxCyc=150, Full)/Gen SCF=(maxcycle=400, vshift=200) Pse
 udo=Read Integral(NoXCTest) Pop=Regular MaxDisk=500GB Guess=Read IOp(5
 /15=2)
 ----------------------------------------------------------------------

 ---
 ZnH
 ---
 Symbolic Z-matrix:
 Charge =  0 Multiplicity = 2

                         Standard orientation:
 ---------------------------------------------------------------------
 Center     Atomic      Atomic             Coordinates (Angstroms)
 Number     Number       Type             X           Y           Z
 ---------------------------------------------------------------------
      1         30           0        0.000000    0.000000    0.051613
      2          1           0        0.000000    0.000000   -1.548387
 ---------------------------------------------------------------------

 SCF Done:  E(ROHF) =  -226.490040002     A.U. after   15 cycles
 E2 =    -0.1035187084D+01 EUMP2 =    -0.22752522708645D+03
 CCSD(T)
 CCSD(T)= -0.22747537576D+03

 The electronic state is 2-SG.
 Alpha  occ. eigenvalues --   -5.89925  -3.97099  -3.97099  -3.96898  -0.80014
 Alpha  occ. eigenvalues --   -0.80014  -0.79921  -0.79511  -0.79511  -0.45683
 Alpha  occ. eigenvalues --   -0.27844
 Alpha virt. eigenvalues --    0.02067   0.02067   0.02908   0.03905   0.07653
 Alpha virt. eigenvalues --    0.07653   0.08827   0.15866   0.18134   0.24125
 Alpha virt. eigenvalues --    0.24125   0.24957   0.24957   0.25415   0.29382

 Mulliken charges and spin densities:
               1          2
     1  Zn   0.330393   0.930816
     2  H   -0.330393   0.069184
 Sum of Mulliken charges =  -0.00000   1.00000

 Dipole moment (field-independent basis, Debye):
    X=              0.0000    Y=              0.0000    Z=              0.7850  Tot=              0.7850
 Quadrupole moment (field-independent basis, Debye-Ang):
   XX=            -14.5941   YY=            -14.5941   ZZ=            -21.1922
   XY=              0.0000   XZ=              0.0000   YZ=              0.0000

 \\#P ROCCSD(T)=(MaxCyc=150, Full)/Gen SCF=(maxcycle=400, vshift=200) P
 Normal termination of Gaussian 16 at Sat Apr 21 10:27:13 2018.
