 Gaussian 16, Revision A.03,
 Gaussian 16:  ES64L-G16RevA.03 25-Dec-2016

 ----------------------------------------------------------------------
 #P ROCCSD(T)=(MaxCyc=150, Full)/Gen SCF=(maxcycle=400, vshift=200) Pse
 udo=Read Integral(NoXCTest) Pop=Regular MaxDisk=500GB Guess=Read IOp(5
 /15=2)
 ----------------------------------------------------------------------

 ---
 ZnH
 ---
 Symbolic Z-matrix:
 Charge =  0 Multiplicity = 2

                         Standard orientation:
 ---------------------------------------------------------------------
 Center     Atomic      Atomic             Coordinates (Angstroms)
 Number     Number       Type             X           Y           Z
 ---------------------------------------------------------------------
      1         30           0        0.000000    0.000000    0.051613
      2          1           0        0.000000    0.000000   -1.548387
 ---------------------------------------------------------------------

 SCF Done:  E(ROHF) =  -226.491304879     A.U. after    9 cycles
 E2 =    -0.1116191910D+01 EUMP2 =    -0.22760749678925D+03
 CCSD(T)
 CCSD(T)= -0.22755485924D+03

 The electronic state is 2-SG.
 Alpha  occ. eigenvalues --   -5.89918  -3.97084  -3.97084  -3.96887  -0.80008
 Alpha  occ. eigenvalues --   -0.80008  -0.79918  -0.79509  -0.79509  -0.45682
 Alpha  occ. eigenvalues --   -0.27847
 Alpha virt. eigenvalues --    0.01884   0.01884   0.02354   0.03257   0.06280
 Alpha virt. eigenvalues --    0.06280   0.06807   0.11980   0.13475   0.15346
 Alpha virt. eigenvalues --    0.15346   0.15427   0.15427   0.18224   0.20961

 Mulliken charges and spin densities:
               1          2
     1  Zn   0.266736   0.920628
     2  H   -0.266736   0.079372
 Sum of Mulliken charges =  -0.00000   1.00000

 Dipole moment (field-independent basis, Debye):
    X=              0.0000    Y=              0.0000    Z=              0.7876  Tot=              0.7876
 Quadrupole moment (field-independent basis, Debye-Ang):
   XX=            -14.5904   YY=            -14.5904   ZZ=            -21.1890
   XY=              0.0000   XZ=              0.0000   YZ=              0.0000

 \\#P ROCCSD(T)=(MaxCyc=150, Full)/Gen SCF=(maxcycle=400, vshift=200) P
 CCSD(T)=-227.5548592\RMSD=5.271e-09\PG=C*V [C*(H1Zn1)]\\@
 Normal termination of Gaussian 16 at Mon Apr 30 08:38:29 2018.
