 Gaussian 16, Revision A.03,
 Gaussian 16:  ES64L-G16RevA.03 25-Dec-2016

 ----------------------------------------------------------------------
 #P ROCCSD(T)=(MaxCyc=150, Full)/Gen SCF=(maxcycle=400, vshift=200) Pse
 udo=Read Integral(NoXCTest) Pop=Regular MaxDisk=500GB Guess=Read IOp(5
 /15=2)
 ----------------------------------------------------------------------

 ---
 ZnH
 ---
 Symbolic Z-matrix:
 Charge =  0 Multiplicity = 2

                         Standard orientation:
 ---------------------------------------------------------------------
 Center     Atomic      Atomic             Coordinates (Angstroms)
 Number     Number       Type             X           Y           Z
 ---------------------------------------------------------------------
      1         30           0        0.000000    0.000000    0.051613
      2          1           0        0.000000    0.000000   -1.548387
 ---------------------------------------------------------------------

 SCF Done:  E(ROHF) =  -226.491191095     A.U. after   18 cycles
 E2 =    -0.1089767101D+01 EUMP2 =    -0.22758095819612D+03
 CCSD(T)
 CCSD(T)= -0.22753027104D+03

 The electronic state is 2-SG.
 Alpha  occ. eigenvalues --   -5.89918  -3.97084  -3.97084  -3.96887  -0.80009
 Alpha  occ. eigenvalues --   -0.80009  -0.79919  -0.79509  -0.79509  -0.45681
 Alpha  occ. eigenvalues --   -0.27846
 Alpha virt. eigenvalues --    0.01945   0.01945   0.02782   0.03537   0.06699
 Alpha virt. eigenvalues --    0.06699   0.07837   0.14164   0.16889   0.17922
 Alpha virt. eigenvalues --    0.17922   0.18085   0.18085   0.21127   0.23422

 Mulliken charges and spin densities:
               1          2
     1  Zn   0.303796   0.922454
     2  H   -0.303796   0.077546
 Sum of Mulliken charges =   0.00000   1.00000

 Dipole moment (field-independent basis, Debye):
    X=              0.0000    Y=              0.0000    Z=              0.7872  Tot=              0.7872
 Quadrupole moment (field-independent basis, Debye-Ang):
   XX=            -14.5910   YY=            -14.5910   ZZ=            -21.1911
   XY=              0.0000   XZ=              0.0000   YZ=              0.0000

 \\#P ROCCSD(T)=(MaxCyc=150, Full)/Gen SCF=(maxcycle=400, vshift=200) P
 CCSD(T)=-227.530271\RMSD=5.944e-09\PG=C*V [C*(H1Zn1)]\\@
 Normal termination of Gaussian 16 at Sat Apr 21 11:18:33 2018.
