 Gaussian 16, Revision A.03,
 Gaussian 16:  ES64L-G16RevA.03 25-Dec-2016

 ----------------------------------------------------------------------
 #P ROCCSD(T)=(maxcyc=150, Full, SaveAmplitudes, ReadAmplitudes)/Gen 5d
  7f SCF=(maxcycles=300) Integral(NoXCTest) MaxDisk=500GB Pop=Regular P
 seudo=Read Guess=Read IOp(5/15=2)
 ----------------------------------------------------------------------

 ---
 CrH
 ---
 Symbolic Z-matrix:
 Charge =  0 Multiplicity = 6

                         Standard orientation:
 ---------------------------------------------------------------------
 Center     Atomic      Atomic             Coordinates (Angstroms)
 Number     Number       Type             X           Y           Z
 ---------------------------------------------------------------------
      1         24           0        0.000000    0.000000    0.060000
      2          1           0        0.000000    0.000000   -1.440000
 ---------------------------------------------------------------------

 SCF Done:  E(ROHF) =  -86.8653572542     A.U. after   27 cycles
 E2 =    -0.5619006958D+00 EUMP2 =    -0.87427257949926D+02
 CCSD(T)
 CCSD(T)= -0.87469083060D+02

 The electronic state is 6-SG.
 Alpha  occ. eigenvalues --   -3.64761  -2.41128  -2.41128  -2.37037  -0.51806
 Alpha  occ. eigenvalues --   -0.51806  -0.48692  -0.48692  -0.42958  -0.25589
 Alpha virt. eigenvalues --    0.01433   0.01433   0.02272   0.02459   0.05694
 Alpha virt. eigenvalues --    0.05694   0.05988   0.07697   0.07697   0.08077
 Alpha virt. eigenvalues --    0.08077   0.08622   0.10289   0.18459   0.21233

 Mulliken charges and spin densities:
               1          2
     1  Cr   0.587226   4.994418
     2  H   -0.587226   0.005582
 Sum of Mulliken charges =   0.00000   5.00000

 Dipole moment (field-independent basis, Debye):
    X=              0.0000    Y=              0.0000    Z=              1.7653  Tot=              1.7653
 Quadrupole moment (field-independent basis, Debye-Ang):
   XX=            -16.8014   YY=            -16.8014   ZZ=            -22.3507
   XY=              0.0000   XZ=              0.0000   YZ=              0.0000

 \\#P ROCCSD(T)=(maxcyc=150, Full, SaveAmplitudes, ReadAmplitudes)/Gen
 05\CCSD=-87.4504554\CCSD(T)=-87.4690831\RMSD=3.303e-09\PG=C*V [C*(H1Cr
 Normal termination of Gaussian 16 at Mon Feb 26 03:04:02 2018.
