 Gaussian 16, Revision A.03,
 Gaussian 16:  ES64L-G16RevA.03 25-Dec-2016

 ----------------------------------------------------------------------
 #P ROCCSD(T)=(maxcyc=150, Full)/Gen 5d 7f SCF=(maxcycles=300, NoVarAcc
 , VShift=200) MaxDisk=100GB Pop=Regular Pseudo=Read Guess=Read
 ----------------------------------------------------------------------

 --
 Mn
 --
 Symbolic Z-matrix:
 Charge =  0 Multiplicity = 6

                         Standard orientation:
 ---------------------------------------------------------------------
 Center     Atomic      Atomic             Coordinates (Angstroms)
 Number     Number       Type             X           Y           Z
 ---------------------------------------------------------------------
      1         25           0        0.000000    0.000000    0.000000
 ---------------------------------------------------------------------

 SCF Done:  E(ROHF) =  -103.451779944     A.U. after   20 cycles
 E2 =    -0.6059207019D+00 EUMP2 =    -0.10405770064573D+03
 CCSD(T)
 CCSD(T)= -0.10407625614D+03

 The electronic state is 6-A1G.
 Alpha  occ. eigenvalues --   -4.15087  -2.79420  -2.79420  -2.79420  -0.62920
 Alpha  occ. eigenvalues --   -0.62920  -0.62920  -0.62920  -0.62920  -0.26822
 Alpha virt. eigenvalues --    0.01709   0.01709   0.01709   0.02124   0.05597
 Alpha virt. eigenvalues --    0.05597   0.05597   0.05597   0.05597   0.05610
 Alpha virt. eigenvalues --    0.05610   0.05610   0.10427   0.17439   0.17439

 Mulliken charges and spin densities:
               1          2
     1  Mn  -0.000000   5.000000
 Sum of Mulliken charges =  -0.00000   5.00000

 Dipole moment (field-independent basis, Debye):
    X=              0.0000    Y=              0.0000    Z=              0.0000  Tot=              0.0000
 Quadrupole moment (field-independent basis, Debye-Ang):
   XX=            -18.8406   YY=            -18.8406   ZZ=            -18.8406
   XY=              0.0000   XZ=              0.0000   YZ=             -0.0000

 1\1\GINC-C506-033\SP\ROCCSD(T)-Full\Gen\Mn1(6)\AANNABE\16-Mar-2018\0\\
 #P ROCCSD(T)=(maxcyc=150, Full)/Gen 5d 7f SCF=(maxcycles=300, NoVarAcc
 , VShift=200) MaxDisk=100GB Pop=Regular Pseudo=Read Guess=Read\\Mn\\0,
 6\Mn,0,0.,0.,0.\\Version=ES64L-G16RevA.03\State=6-A1G\HF=-103.4517799\
 MP2=-104.0577006\MP3=-104.055245\PUHF=-103.4517799\PMP2-0=-104.0577006
 \MP4SDQ=-104.0573058\CCSD=-104.0575744\CCSD(T)=-104.0762561\RMSD=5.940
 e-09\PG=OH [O(Mn1)]\\@

 Normal termination of Gaussian 16 at Fri Mar 16 11:58:28 2018.
