 Gaussian 16, Revision A.03,
 Gaussian 16:  ES64L-G16RevA.03 25-Dec-2016

 ----------------------------------------------------------------------
 #P ROCCSD(T)=(maxcyc=150, Full, SaveAmplitudes, ReadAmplitudes)/Gen 5d
  7f SCF=(maxcycles=300, VShift=400) Integral(NoXCTest) MaxDisk=500GB P
 op=Full Pseudo=Read Guess=Read IOp(5/15=2)
 ----------------------------------------------------------------------

 ---
 MnO
 ---
 Symbolic Z-matrix:
 Charge =  0 Multiplicity = 6

                         Standard orientation:
 ---------------------------------------------------------------------
 Center     Atomic      Atomic             Coordinates (Angstroms)
 Number     Number       Type             X           Y           Z
 ---------------------------------------------------------------------
      1         25           0        0.000000    0.000000    0.315152
      2          8           0        0.000000    0.000000   -0.984848
 ---------------------------------------------------------------------

 SCF Done:  E(ROHF) =  -118.936542274     A.U. after   46 cycles
 E2 =    -0.9291733549D+00 EUMP2 =    -0.11986571562888D+03
 CCSD(T)
 CCSD(T)= -0.11987273962D+03

 The electronic state is 6-SG.
 Alpha  occ. eigenvalues --   -4.13649  -2.77440  -2.77410  -2.77410  -1.27725
 Alpha  occ. eigenvalues --   -0.73418  -0.73418  -0.61357  -0.61357  -0.60230
 Alpha  occ. eigenvalues --   -0.40659  -0.40659  -0.30133
 Alpha virt. eigenvalues --    0.01915   0.02424   0.02424   0.03164   0.06390
 Alpha virt. eigenvalues --    0.07596   0.07596   0.08765   0.08765   0.09363
 Alpha virt. eigenvalues --    0.09363   0.10257   0.12072   0.16392   0.24552

 Mulliken charges and spin densities:
               1          2
     1  Mn   0.796138   4.759729
     2  O   -0.796138   0.240271
 Sum of Mulliken charges =  -0.00000   5.00000

 Dipole moment (field-independent basis, Debye):
    X=              0.0000    Y=              0.0000    Z=              2.7124  Tot=              2.7124
 Quadrupole moment (field-independent basis, Debye-Ang):
   XX=            -19.8562   YY=            -19.8562   ZZ=            -22.9129
   XY=              0.0000   XZ=              0.0000   YZ=              0.0000

 \\#P ROCCSD(T)=(maxcyc=150, Full, SaveAmplitudes, ReadAmplitudes)/Gen
 4SDQ=-119.8474654\CCSD=-119.8334474\CCSD(T)=-119.8727396\RMSD=9.012e-0
 Normal termination of Gaussian 16 at Sat Mar 24 23:29:22 2018.
