 Gaussian 16, Revision A.03,
 Gaussian 16:  ES64L-G16RevA.03 25-Dec-2016

 ----------------------------------------------------------------------
 #P ROCCSD(T)=(maxcyc=150, Full, SaveAmplitudes, ReadAmplitudes)/Gen 5d
  7f SCF=(maxcycles=300) Integral(NoXCTest) MaxDisk=500GB Pop=Regular P
 seudo=Read Guess=Read IOp(5/15=2)
 ----------------------------------------------------------------------

 ---
 CrO
 ---
 Symbolic Z-matrix:
 Charge =  0 Multiplicity = 5

                         Standard orientation:
 ---------------------------------------------------------------------
 Center     Atomic      Atomic             Coordinates (Angstroms)
 Number     Number       Type             X           Y           Z
 ---------------------------------------------------------------------
      1         24           0        0.000000    0.000000    0.325000
      2          8           0        0.000000    0.000000   -0.975000
 ---------------------------------------------------------------------

 SCF Done:  E(ROHF) =  -101.737840941     A.U. after   29 cycles
 E2 =    -0.8787625809D+00 EUMP2 =    -0.10261660352235D+03
 CCSD(T)
 CCSD(T)= -0.10262903024D+03

 Unable to determine electronic state:  an orbital has unidentified symmetry.
 Alpha  occ. eigenvalues --   -3.73273  -2.48010  -2.46806  -2.43811  -1.25597
 Alpha  occ. eigenvalues --   -0.69011  -0.60070  -0.59752  -0.51390  -0.51025
 Alpha  occ. eigenvalues --   -0.35343  -0.27168
 Alpha virt. eigenvalues --    0.01340   0.02321   0.02466   0.02873   0.05245
 Alpha virt. eigenvalues --    0.06581   0.07313   0.07738   0.07742   0.07886
 Alpha virt. eigenvalues --    0.08738   0.09832   0.12244   0.17158   0.19306

 Mulliken charges and spin densities:
               1          2
     1  Cr   0.904802   3.767198
     2  O   -0.904802   0.232802
 Sum of Mulliken charges =  -0.00000   4.00000

 Dipole moment (field-independent basis, Debye):
    X=              0.0000    Y=              0.0000    Z=              1.7449  Tot=              1.7449
 Quadrupole moment (field-independent basis, Debye-Ang):
   XX=            -21.5064   YY=            -19.7972   ZZ=            -23.6192
   XY=              0.0000   XZ=              0.0000   YZ=              0.0000

 \\#P ROCCSD(T)=(maxcyc=150, Full, SaveAmplitudes, ReadAmplitudes)/Gen
 SD=-102.5874763\CCSD(T)=-102.6290302\RMSD=3.899e-09\PG=C*V [C*(O1Cr1)]
 Normal termination of Gaussian 16 at Sat Mar 10 04:33:26 2018.
