 Gaussian 16, Revision A.03,
 Gaussian 16:  ES64L-G16RevA.03 25-Dec-2016

 ----------------------------------------------------------------------
 #P ROCCSD(T)=(maxcyc=150, Full, SaveAmplitudes, ReadAmplitudes)/Gen 5d
  7f SCF=(maxcycles=300) Integral(NoXCTest) MaxDisk=500GB Pop=Regular P
 seudo=Read Guess=Read
 ----------------------------------------------------------------------

 ---
 MnO
 ---
 Symbolic Z-matrix:
 Charge =  0 Multiplicity = 6

                         Standard orientation:
 ---------------------------------------------------------------------
 Center     Atomic      Atomic             Coordinates (Angstroms)
 Number     Number       Type             X           Y           Z
 ---------------------------------------------------------------------
      1         25           0        0.000000    0.000000    0.339394
      2          8           0        0.000000    0.000000   -1.060606
 ---------------------------------------------------------------------

 SCF Done:  E(ROHF) =  -119.118934499     A.U. after   22 cycles
 E2 =    -0.9684616155D+00 EUMP2 =    -0.12008739611468D+03
 CCSD(T)
 CCSD(T)= -0.12009672952D+03

 The electronic state is 6-SG.
 Alpha  occ. eigenvalues --   -4.15661  -2.79589  -2.79589  -2.77387  -1.24432
 Alpha  occ. eigenvalues --   -0.70533  -0.70533  -0.63219  -0.63219  -0.55861
 Alpha  occ. eigenvalues --   -0.41062  -0.41062  -0.31785
 Alpha virt. eigenvalues --    0.01112   0.01987   0.01987   0.03076   0.04765
 Alpha virt. eigenvalues --    0.05922   0.05922   0.05933   0.05933   0.06620
 Alpha virt. eigenvalues --    0.07159   0.07159   0.11539   0.14242   0.17853

 Mulliken charges and spin densities:
               1          2
     1  Mn   1.070491   4.774530
     2  O   -1.070491   0.225470
 Sum of Mulliken charges =  -0.00000   5.00000

 Dipole moment (field-independent basis, Debye):
    X=              0.0000    Y=              0.0000    Z=              4.2037  Tot=              4.2037
 Quadrupole moment (field-independent basis, Debye-Ang):
   XX=            -19.6582   YY=            -19.6582   ZZ=            -23.1549
   XY=              0.0000   XZ=              0.0000   YZ=              0.0000

 \\#P ROCCSD(T)=(maxcyc=150, Full, SaveAmplitudes, ReadAmplitudes)/Gen
 9.1189345\PMP2-0=-120.0873961\CCSD=-120.053627\CCSD(T)=-120.0967295\RM
 Normal termination of Gaussian 16 at Fri Mar  9 19:04:41 2018.
