 Gaussian 16, Revision A.03,
 Gaussian 16:  ES64L-G16RevA.03 25-Dec-2016

 ----------------------------------------------------------------------
 #P ROCCSD(T)=(maxcyc=150, Full)/Gen 5d 7f SCF=(maxcycles=300) Integral
 (NoXCTest) MaxDisk=500GB Pop=Regular Pseudo=Read IOp(5/15=2) Guess=Rea
 d
 ----------------------------------------------------------------------

 ---
 ScH
 ---
 Symbolic Z-matrix:
 Charge =  0 Multiplicity = 1

                         Standard orientation:
 ---------------------------------------------------------------------
 Center     Atomic      Atomic             Coordinates (Angstroms)
 Number     Number       Type             X           Y           Z
 ---------------------------------------------------------------------
      1         21           0        0.000000    0.000000    0.054545
      2          1           0        0.000000    0.000000   -1.145455
 ---------------------------------------------------------------------

 SCF Done:  E(ROHF) =  -46.6805906102     A.U. after   12 cycles
 E2 =    -0.4173776461D+00 EUMP2 =    -0.47097968256280D+02
 CCSD(T)
 CCSD(T)= -0.47137155458D+02

 The electronic state is 1-SG.
 Alpha  occ. eigenvalues --   -2.65467  -1.63467  -1.58856  -1.58856  -0.46830
 Alpha  occ. eigenvalues --   -0.21561
 Alpha virt. eigenvalues --    0.01406   0.01406   0.01491   0.02226   0.03473
 Alpha virt. eigenvalues --    0.03915   0.03915   0.03952   0.03952   0.04943
 Alpha virt. eigenvalues --    0.04984   0.04984   0.09323   0.10726   0.10726

 Mulliken charges and spin densities:
               1          2
     1  Sc   0.490779   0.000000
     2  H   -0.490779   0.000000
 Sum of Mulliken charges =  -0.00000   0.00000

 Dipole moment (field-independent basis, Debye):
    X=              0.0000    Y=              0.0000    Z=              0.7455  Tot=              0.7455
 Quadrupole moment (field-independent basis, Debye-Ang):
   XX=            -23.4902   YY=            -23.4902   ZZ=            -22.3991
   XY=              0.0000   XZ=              0.0000   YZ=              0.0000

 P ROCCSD(T)=(maxcyc=150, Full)/Gen 5d 7f SCF=(maxcycles=300) Integral(
 PMP2-0=-47.0979683\MP4SDQ=-47.1202287\CCSD=-47.119724\CCSD(T)=-47.1371
 Normal termination of Gaussian 16 at Tue Feb 13 19:06:25 2018.
