 Gaussian 16, Revision A.03,
 Gaussian 16:  ES64L-G16RevA.03 25-Dec-2016

 ----------------------------------------------------------------------
 #P ROCCSD(T)=(maxcyc=150, Full, SaveAmplitudes, ReadAmplitudes)/Gen 5d
  7f SCF=(maxcycles=300) Integral(NoXCTest) MaxDisk=500GB Pop=Regular P
 seudo=Read Guess=Read
 ----------------------------------------------------------------------

 ---
 ScO
 ---
 Symbolic Z-matrix:
 Charge =  0 Multiplicity = 2

                         Standard orientation:
 ---------------------------------------------------------------------
 Center     Atomic      Atomic             Coordinates (Angstroms)
 Number     Number       Type             X           Y           Z
 ---------------------------------------------------------------------
      1         21           0        0.000000    0.000000    0.386207
      2          8           0        0.000000    0.000000   -1.013793
 ---------------------------------------------------------------------

 SCF Done:  E(ROHF) =  -62.0000944547     A.U. after   16 cycles
 E2 =    -0.7121324520D+00 EUMP2 =    -0.62712226906685D+02
 CCSD(T)
 CCSD(T)= -0.62736311466D+02

 The electronic state is 2-SG.
 Alpha  occ. eigenvalues --   -2.64053  -1.70369  -1.54321  -1.54321  -1.08049
 Alpha  occ. eigenvalues --   -0.52336  -0.52336  -0.45865  -0.21065
 Alpha virt. eigenvalues --    0.00800   0.00800   0.02022   0.02044   0.02788
 Alpha virt. eigenvalues --    0.02788   0.02943   0.02943   0.02976   0.03920
 Alpha virt. eigenvalues --    0.03920   0.06220   0.07901   0.07901   0.08906

 Mulliken charges and spin densities:
               1          2
     1  Sc   1.127137   1.006673
     2  O   -1.127137  -0.006673
 Sum of Mulliken charges =  -0.00000   1.00000

 Dipole moment (field-independent basis, Debye):
    X=              0.0000    Y=              0.0000    Z=              1.5373  Tot=              1.5373
 Quadrupole moment (field-independent basis, Debye-Ang):
   XX=            -22.2297   YY=            -22.2297   ZZ=            -30.3072
   XY=              0.0000   XZ=              0.0000   YZ=              0.0000

 \\#P ROCCSD(T)=(maxcyc=150, Full, SaveAmplitudes, ReadAmplitudes)/Gen
 000945\PMP2-0=-62.7122269\CCSD=-62.7017514\CCSD(T)=-62.7363115\RMSD=6.
 Normal termination of Gaussian 16 at Wed Feb 28 20:08:56 2018.
