 Gaussian 16, Revision A.03,
 Gaussian 16:  ES64L-G16RevA.03 25-Dec-2016

 ----------------------------------------------------------------------
 #P ROCCSD(T)=(MaxCyc=150, Full)/Gen SCF=(maxcycle=400) Pseudo=Read Int
 egral(NoXCTest) Pop=Regular MaxDisk=500GB Guess=Read IOp(5/15=2)
 ----------------------------------------------------------------------

 ---
 CuO
 ---
 Symbolic Z-matrix:
 Charge =  0 Multiplicity = 2

                         Standard orientation:
 ---------------------------------------------------------------------
 Center     Atomic      Atomic             Coordinates (Angstroms)
 Number     Number       Type             X           Y           Z
 ---------------------------------------------------------------------
      1         29           0        0.000000    0.000000    0.345946
      2          8           0        0.000000    0.000000   -1.254054
 ---------------------------------------------------------------------

 SCF Done:  E(ROHF) =  -211.934437644     A.U. after   16 cycles
 E2 =    -0.1324114294D+01 EUMP2 =    -0.21325855193879D+03
 CCSD(T)
 CCSD(T)= -0.21319238465D+03

 Unable to determine electronic state:  an orbital has unidentified symmetry.
 Alpha  occ. eigenvalues --   -4.97694  -3.39216  -3.38318  -3.37885  -1.24478
 Alpha  occ. eigenvalues --   -0.60835  -0.57293  -0.56499  -0.52785  -0.52783
 Alpha  occ. eigenvalues --   -0.47636  -0.42008  -0.39284
 Alpha virt. eigenvalues --   -0.00862   0.02937   0.03104   0.04037   0.04822
 Alpha virt. eigenvalues --    0.10560   0.10959   0.13705   0.19419   0.19739
 Alpha virt. eigenvalues --    0.19761   0.21137   0.21575   0.22612   0.26028

 Mulliken charges and spin densities:
               1          2
     1  Cu   0.856625   0.031740
     2  O   -0.856625   0.968260
 Sum of Mulliken charges =  -0.00000   1.00000

 Dipole moment (field-independent basis, Debye):
    X=              0.0000    Y=              0.0000    Z=              5.2743  Tot=              5.2743
 Quadrupole moment (field-independent basis, Debye-Ang):
   XX=            -15.7732   YY=            -17.3216   ZZ=            -19.3955
   XY=              0.0000   XZ=              0.0000   YZ=              0.0000

 \\#P ROCCSD(T)=(MaxCyc=150, Full)/Gen SCF=(maxcycle=400) Pseudo=Read I
 .2585519\MP4SDQ=-213.2254447\CCSD=-213.1434559\CCSD(T)=-213.1923846\RM
 Normal termination of Gaussian 16 at Sun Mar 25 23:48:44 2018.
