 Gaussian 16, Revision A.03,
 Gaussian 16:  ES64L-G16RevA.03 25-Dec-2016

 ----------------------------------------------------------------------
 #P ROCCSD(T)=(MaxCyc=150, Full)/Gen SCF=(maxcycle=400) Pseudo=Read Int
 egral(NoXCTest) Pop=Regular MaxDisk=500GB Guess=Read IOp(5/15=2)
 ----------------------------------------------------------------------

 ---
 CuO
 ---
 Symbolic Z-matrix:
 Charge =  0 Multiplicity = 2

                         Standard orientation:
 ---------------------------------------------------------------------
 Center     Atomic      Atomic             Coordinates (Angstroms)
 Number     Number       Type             X           Y           Z
 ---------------------------------------------------------------------
      1         29           0        0.000000    0.000000    0.345946
      2          8           0        0.000000    0.000000   -1.254054
 ---------------------------------------------------------------------

 SCF Done:  E(ROHF) =  -211.939127539     A.U. after   20 cycles
 E2 =    -0.1388016612D+01 EUMP2 =    -0.21332714415106D+03
 CCSD(T)
 CCSD(T)= -0.21325797310D+03

 Unable to determine electronic state:  an orbital has unidentified symmetry.
 Alpha  occ. eigenvalues --   -4.97650  -3.39170  -3.38280  -3.37850  -1.24427
 Alpha  occ. eigenvalues --   -0.60839  -0.57296  -0.56482  -0.52789  -0.52787
 Alpha  occ. eigenvalues --   -0.47637  -0.42011  -0.39271
 Alpha virt. eigenvalues --   -0.00868   0.02610   0.02745   0.03589   0.04567
 Alpha virt. eigenvalues --    0.09056   0.09364   0.11895   0.13522   0.13532
 Alpha virt. eigenvalues --    0.14368   0.14405   0.14855   0.19091   0.21545

 Mulliken charges and spin densities:
               1          2
     1  Cu   0.733351   0.033798
     2  O   -0.733351   0.966202
 Sum of Mulliken charges =  -0.00000   1.00000

 Dipole moment (field-independent basis, Debye):
    X=              0.0000    Y=              0.0000    Z=              5.2589  Tot=              5.2589
 Quadrupole moment (field-independent basis, Debye-Ang):
   XX=            -15.7650   YY=            -17.2965   ZZ=            -19.4102
   XY=              0.0000   XZ=              0.0000   YZ=              0.0000

 \\#P ROCCSD(T)=(MaxCyc=150, Full)/Gen SCF=(maxcycle=400) Pseudo=Read I
 .3271442\MP4SDQ=-213.2877129\CCSD=-213.2064545\CCSD(T)=-213.2579731\RM
 Normal termination of Gaussian 16 at Mon Mar 26 02:26:01 2018.
