 Gaussian 16, Revision A.03,
 Gaussian 16:  ES64L-G16RevA.03 25-Dec-2016

 ----------------------------------------------------------------------
 #P ROCCSD(T)=(MaxCyc=150, Full)/Gen SCF=(maxcycle=400) Pseudo=Read Int
 egral(NoXCTest) Pop=Regular MaxDisk=500GB Guess=Read IOp(5/15=2)
 ----------------------------------------------------------------------

 --
 Ni
 --
 Symbolic Z-matrix:
 Charge =  0 Multiplicity = 3

                         Standard orientation:
 ---------------------------------------------------------------------
 Center     Atomic      Atomic             Coordinates (Angstroms)
 Number     Number       Type             X           Y           Z
 ---------------------------------------------------------------------
      1         28           0        0.000000    0.000000    0.000000
 ---------------------------------------------------------------------

 SCF Done:  E(ROHF) =  -169.929119608     A.U. after   14 cycles
 E2 =    -0.8741525533D+00 EUMP2 =    -0.17080327216176D+03
 CCSD(T)
 CCSD(T)= -0.17079504362D+03

 Unable to determine electronic state:  an orbital has unidentified symmetry.
 Alpha  occ. eigenvalues --   -5.16729  -3.53951  -3.45452  -3.45452  -0.77705
 Alpha  occ. eigenvalues --   -0.77705  -0.73812  -0.68991  -0.68991  -0.28756
 Alpha virt. eigenvalues --    0.02119   0.02252   0.02252   0.02992   0.06783
 Alpha virt. eigenvalues --    0.07147   0.07147   0.08330   0.08330   0.08331
 Alpha virt. eigenvalues --    0.08363   0.08363   0.16070   0.22724   0.23317

 Mulliken charges and spin densities:
               1          2
     1  Ni  -0.000000   2.000000
 Sum of Mulliken charges =  -0.00000   2.00000

 Dipole moment (field-independent basis, Debye):
    X=              0.0000    Y=              0.0000    Z=              0.0000  Tot=              0.0000
 Quadrupole moment (field-independent basis, Debye-Ang):
   XX=            -16.4786   YY=            -16.2405   ZZ=            -16.4786
   XY=             -0.0000   XZ=             -0.0000   YZ=              0.0000

 1\1\GINC-C404-054\SP\ROCCSD(T)-Full\Gen\Ni1(3)\GWANG18\27-Mar-2018\0\\
 #P ROCCSD(T)=(MaxCyc=150, Full)/Gen SCF=(maxcycle=400) Pseudo=Read Int
 egral(NoXCTest) Pop=Regular MaxDisk=500GB Guess=Read IOp(5/15=2)\\Ni\\
 0,3\Ni,0,0.,0.,0.\\Version=ES64L-G16RevA.03\HF=-169.9291196\MP2=-170.8
 032722\MP3=-170.7452902\PUHF=-169.9291196\PMP2-0=-170.8032722\MP4SDQ=-
 170.7774558\CCSD=-170.7679641\CCSD(T)=-170.7950436\RMSD=1.289e-09\PG=O
 H [O(Ni1)]\\@

 Normal termination of Gaussian 16 at Tue Mar 27 23:48:59 2018.
