 Gaussian 16, Revision A.03,
 Gaussian 16:  ES64L-G16RevA.03 25-Dec-2016

 ----------------------------------------------------------------------
 #P ROCCSD(T)=(MaxCyc=150, Full)/Gen SCF=(maxcycle=400) Pseudo=Read Int
 egral(NoXCTest) Pop=Regular MaxDisk=500GB Guess=Read IOp(5/15=2)
 ----------------------------------------------------------------------

 --
 Ni
 --
 Symbolic Z-matrix:
 Charge =  0 Multiplicity = 3

                         Standard orientation:
 ---------------------------------------------------------------------
 Center     Atomic      Atomic             Coordinates (Angstroms)
 Number     Number       Type             X           Y           Z
 ---------------------------------------------------------------------
      1         28           0        0.000000    0.000000    0.000000
 ---------------------------------------------------------------------

 SCF Done:  E(ROHF) =  -169.927884675     A.U. after   14 cycles
 E2 =    -0.8312121413D+00 EUMP2 =    -0.17075909681583D+03
 CCSD(T)
 CCSD(T)= -0.17075209478D+03

 Unable to determine electronic state:  an orbital has unidentified symmetry.
 Alpha  occ. eigenvalues --   -5.16729  -3.53960  -3.45459  -3.45459  -0.77702
 Alpha  occ. eigenvalues --   -0.77702  -0.73805  -0.68986  -0.68986  -0.28759
 Alpha virt. eigenvalues --    0.02261   0.02417   0.02417   0.03101   0.07711
 Alpha virt. eigenvalues --    0.08118   0.08118   0.12666   0.12666   0.12676
 Alpha virt. eigenvalues --    0.12752   0.12752   0.16526   0.28412   0.29155

 Mulliken charges and spin densities:
               1          2
     1  Ni  -0.000000   2.000000
 Sum of Mulliken charges =  -0.00000   2.00000

 Dipole moment (field-independent basis, Debye):
    X=              0.0000    Y=              0.0000    Z=              0.0000  Tot=              0.0000
 Quadrupole moment (field-independent basis, Debye-Ang):
   XX=            -16.4814   YY=            -16.2402   ZZ=            -16.4814
   XY=             -0.0000   XZ=              0.0000   YZ=              0.0000

 1\1\GINC-C404-054\SP\ROCCSD(T)-Full\Gen\Ni1(3)\GWANG18\27-Mar-2018\0\\
 #P ROCCSD(T)=(MaxCyc=150, Full)/Gen SCF=(maxcycle=400) Pseudo=Read Int
 egral(NoXCTest) Pop=Regular MaxDisk=500GB Guess=Read IOp(5/15=2)\\Ni\\
 0,3\Ni,0,0.,0.,0.\\Version=ES64L-G16RevA.03\HF=-169.9278847\MP2=-170.7
 590968\MP3=-170.70274\PUHF=-169.9278847\PMP2-0=-170.7590968\MP4SDQ=-17
 0.7361132\CCSD=-170.7264167\CCSD(T)=-170.7520948\RMSD=1.465e-09\PG=OH
 [O(Ni1)]\\@

 Normal termination of Gaussian 16 at Tue Mar 27 23:24:32 2018.
