 Gaussian 16, Revision A.03,
 Gaussian 16:  ES64L-G16RevA.03 25-Dec-2016

 ----------------------------------------------------------------------
 #P ROCCSD(T)=(MaxCyc=150, Full)/Gen SCF=(maxcycle=400) Pseudo=Read Int
 egral(NoXCTest) Pop=Regular MaxDisk=500GB Guess=Read IOp(5/15=2)
 ----------------------------------------------------------------------

 ---
 CuH
 ---
 Symbolic Z-matrix:
 Charge =  0 Multiplicity = 1

                         Standard orientation:
 ---------------------------------------------------------------------
 Center     Atomic      Atomic             Coordinates (Angstroms)
 Number     Number       Type             X           Y           Z
 ---------------------------------------------------------------------
      1         29           0        0.000000    0.000000    0.043333
      2          1           0        0.000000    0.000000   -1.256667
 ---------------------------------------------------------------------

 SCF Done:  E(ROHF) =  -196.714311026     A.U. after   13 cycles
 E2 =    -0.1094671622D+01 EUMP2 =    -0.19780898264849D+03
 CCSD(T)
 CCSD(T)= -0.19772555049D+03

 The electronic state is 1-SG.
 Alpha  occ. eigenvalues --   -5.25161  -3.45752  -3.44813  -3.44813  -0.53375
 Alpha  occ. eigenvalues --   -0.51225  -0.51225  -0.50435  -0.50435  -0.33891
 Alpha virt. eigenvalues --    0.00493   0.02965   0.02965   0.03418   0.05808
 Alpha virt. eigenvalues --    0.10056   0.10353   0.10353   0.17250   0.19422
 Alpha virt. eigenvalues --    0.19422   0.20529   0.20529   0.21972   0.25956

 Mulliken charges and spin densities:
               1          2
     1  Cu   0.338655  -0.000000
     2  H   -0.338655  -0.000000
 Sum of Mulliken charges =  -0.00000  -0.00000

 Dipole moment (field-independent basis, Debye):
    X=              0.0000    Y=              0.0000    Z=              3.5749  Tot=              3.5749
 Quadrupole moment (field-independent basis, Debye-Ang):
   XX=            -13.8052   YY=            -13.8052   ZZ=            -14.9839
   XY=              0.0000   XZ=              0.0000   YZ=              0.0000

 P ROCCSD(T)=(MaxCyc=150, Full)/Gen SCF=(maxcycle=400) Pseudo=Read Inte
 0=-197.8089826\MP4SDQ=-197.7656491\CCSD=-197.6876593\CCSD(T)=-197.7255
 Normal termination of Gaussian 16 at Wed Apr  4 23:00:54 2018.
