 Gaussian 16, Revision A.03,
 Gaussian 16:  ES64L-G16RevA.03 25-Dec-2016

 ----------------------------------------------------------------------
 #P ROCCSD(T)=(MaxCyc=150, Full)/Gen SCF=(maxcycle=400) Pseudo=Read Int
 egral(NoXCTest) Pop=Regular MaxDisk=500GB Guess=Read IOp(5/15=2)
 ----------------------------------------------------------------------

 ---
 CuH
 ---
 Symbolic Z-matrix:
 Charge =  0 Multiplicity = 1

                         Standard orientation:
 ---------------------------------------------------------------------
 Center     Atomic      Atomic             Coordinates (Angstroms)
 Number     Number       Type             X           Y           Z
 ---------------------------------------------------------------------
      1         29           0        0.000000    0.000000    0.043333
      2          1           0        0.000000    0.000000   -1.256667
 ---------------------------------------------------------------------

 SCF Done:  E(ROHF) =  -196.715755763     A.U. after    7 cycles
 E2 =    -0.1171420369D+01 EUMP2 =    -0.19788717613213D+03
 CCSD(T)
 CCSD(T)= -0.19780011482D+03

 The electronic state is 1-SG.
 Alpha  occ. eigenvalues --   -5.25165  -3.45743  -3.44810  -3.44810  -0.53373
 Alpha  occ. eigenvalues --   -0.51230  -0.51230  -0.50443  -0.50443  -0.33896
 Alpha virt. eigenvalues --    0.00374   0.02588   0.02588   0.02824   0.04587
 Alpha virt. eigenvalues --    0.07823   0.08637   0.08637   0.12015   0.12015
 Alpha virt. eigenvalues --    0.12049   0.12572   0.12572   0.15273   0.18714

 Mulliken charges and spin densities:
               1          2
     1  Cu   0.294890   0.000000
     2  H   -0.294890   0.000000
 Sum of Mulliken charges =   0.00000   0.00000

 Dipole moment (field-independent basis, Debye):
    X=              0.0000    Y=              0.0000    Z=              3.5632  Tot=              3.5632
 Quadrupole moment (field-independent basis, Debye-Ang):
   XX=            -13.7937   YY=            -13.7937   ZZ=            -15.0013
   XY=              0.0000   XZ=              0.0000   YZ=              0.0000

 P ROCCSD(T)=(MaxCyc=150, Full)/Gen SCF=(maxcycle=400) Pseudo=Read Inte
 2-0=-197.8871761\MP4SDQ=-197.836032\CCSD=-197.7594568\CCSD(T)=-197.800
 Normal termination of Gaussian 16 at Thu Apr  5 02:38:12 2018.
