 Gaussian 16, Revision A.03,
 Gaussian 16:  ES64L-G16RevA.03 25-Dec-2016

 ----------------------------------------------------------------------
 #P ROCCSD(T)=(MaxCyc=150, Full)/Gen SCF=(maxcycle=400) Pseudo=Read Int
 egral(NoXCTest) Pop=Regular MaxDisk=500GB Guess=Read IOp(5/15=2)
 ----------------------------------------------------------------------

 ---
 CuH
 ---
 Symbolic Z-matrix:
 Charge =  0 Multiplicity = 1

                         Standard orientation:
 ---------------------------------------------------------------------
 Center     Atomic      Atomic             Coordinates (Angstroms)
 Number     Number       Type             X           Y           Z
 ---------------------------------------------------------------------
      1         29           0        0.000000    0.000000    0.043333
      2          1           0        0.000000    0.000000   -1.256667
 ---------------------------------------------------------------------

 SCF Done:  E(ROHF) =  -196.715673218     A.U. after    8 cycles
 E2 =    -0.1146465049D+01 EUMP2 =    -0.19786213826738D+03
 CCSD(T)
 CCSD(T)= -0.19777728530D+03

 The electronic state is 1-SG.
 Alpha  occ. eigenvalues --   -5.25163  -3.45742  -3.44809  -3.44809  -0.53374
 Alpha  occ. eigenvalues --   -0.51228  -0.51228  -0.50443  -0.50443  -0.33895
 Alpha virt. eigenvalues --    0.00466   0.02676   0.02676   0.03095   0.05405
 Alpha virt. eigenvalues --    0.09003   0.09003   0.09067   0.13443   0.13443
 Alpha virt. eigenvalues --    0.13463   0.14002   0.14002   0.20288   0.22566

 Mulliken charges and spin densities:
               1          2
     1  Cu   0.319091   0.000000
     2  H   -0.319091   0.000000
 Sum of Mulliken charges =   0.00000   0.00000

 Dipole moment (field-independent basis, Debye):
    X=              0.0000    Y=              0.0000    Z=              3.5649  Tot=              3.5649
 Quadrupole moment (field-independent basis, Debye-Ang):
   XX=            -13.7952   YY=            -13.7952   ZZ=            -14.9989
   XY=              0.0000   XZ=              0.0000   YZ=              0.0000

 P ROCCSD(T)=(MaxCyc=150, Full)/Gen SCF=(maxcycle=400) Pseudo=Read Inte
 2-0=-197.8621383\MP4SDQ=-197.8144841\CCSD=-197.737375\CCSD(T)=-197.777
 Normal termination of Gaussian 16 at Wed Apr  4 23:54:05 2018.
