 Gaussian 16, Revision A.03,
 Gaussian 16:  ES64L-G16RevA.03 25-Dec-2016

 ----------------------------------------------------------------------
 #P ROCCSD(T)=(maxcyc=150, Full, SaveAmplitudes, ReadAmplitudes)/Gen 5d
  7f SCF=(maxcycles=300, VShift=400) Integral(NoXCTest) MaxDisk=500GB P
 op=Full Pseudo=Read Guess=Read IOp(5/15=2)
 ----------------------------------------------------------------------

 ---
 MnH
 ---
 Symbolic Z-matrix:
 Charge =  0 Multiplicity = 7

                         Standard orientation:
 ---------------------------------------------------------------------
 Center     Atomic      Atomic             Coordinates (Angstroms)
 Number     Number       Type             X           Y           Z
 ---------------------------------------------------------------------
      1         25           0        0.000000    0.000000    0.076923
      2          1           0        0.000000    0.000000   -1.923077
 ---------------------------------------------------------------------

 SCF Done:  E(ROHF) =  -103.794189285     A.U. after   33 cycles
 E2 =    -0.5683518113D+00 EUMP2 =    -0.10436254109613D+03
 CCSD(T)
 CCSD(T)= -0.10438675078D+03

 The electronic state is 7-SG.
 Alpha  occ. eigenvalues --   -4.16360  -2.78459  -2.78459  -2.78191  -0.65838
 Alpha  occ. eigenvalues --   -0.65838  -0.65163  -0.65163  -0.65120  -0.38737
 Alpha  occ. eigenvalues --   -0.27015
 Alpha virt. eigenvalues --    0.01013   0.01013   0.02293   0.03137   0.05510
 Alpha virt. eigenvalues --    0.05510   0.07961   0.08378   0.08378   0.08876
 Alpha virt. eigenvalues --    0.08876   0.10349   0.13307   0.18152   0.22366

 Mulliken charges and spin densities:
               1          2
     1  Mn   0.430489   5.954356
     2  H   -0.430489   0.045644
 Sum of Mulliken charges =  -0.00000   6.00000

 Dipole moment (field-independent basis, Debye):
    X=              0.0000    Y=              0.0000    Z=              2.4240  Tot=              2.4240
 Quadrupole moment (field-independent basis, Debye-Ang):
   XX=            -16.4734   YY=            -16.4734   ZZ=            -28.0378
   XY=              0.0000   XZ=              0.0000   YZ=              0.0000

 \\#P ROCCSD(T)=(maxcyc=150, Full, SaveAmplitudes, ReadAmplitudes)/Gen
 SDQ=-104.3699079\CCSD=-104.3711618\CCSD(T)=-104.3867508\RMSD=9.374e-09
 Normal termination of Gaussian 16 at Sat May  5 12:21:31 2018.
