 Gaussian 16, Revision A.03,
 Gaussian 16:  ES64L-G16RevA.03 25-Dec-2016

 ----------------------------------------------------------------------
 #P ROCCSD(T)=(MaxCyc=150, Full)/Gen SCF=(maxcycle=400) Pseudo=Read Int
 egral(NoXCTest) Pop=Regular MaxDisk=500GB
 ----------------------------------------------------------------------

 ---
 FeO
 ---
 Symbolic Z-matrix:
 Charge =  0 Multiplicity = 5

                         Standard orientation:
 ---------------------------------------------------------------------
 Center     Atomic      Atomic             Coordinates (Angstroms)
 Number     Number       Type             X           Y           Z
 ---------------------------------------------------------------------
      1         26           0        0.000000    0.000000    0.400000
      2          8           0        0.000000    0.000000   -1.300000
 ---------------------------------------------------------------------

 SCF Done:  E(ROHF) =  -138.665295914     A.U. after   30 cycles
 E2 =    -0.1023565836D+01 EUMP2 =    -0.13968886174973D+03
 CCSD(T)
 CCSD(T)= -0.13971540085D+03

 Unable to determine electronic state:  partially filled degenerate orbitals.
 Alpha  occ. eigenvalues --   -4.59267  -3.06127  -2.99054  -2.99054  -1.11618
 Alpha  occ. eigenvalues --   -0.69802  -0.69802  -0.67282  -0.66389  -0.61471
 Alpha  occ. eigenvalues --   -0.35176  -0.34309  -0.34309
 Alpha virt. eigenvalues --   -0.05444   0.01404   0.01404   0.01516   0.03566
 Alpha virt. eigenvalues --    0.06090   0.06090   0.06399   0.06409   0.06673
 Alpha virt. eigenvalues --    0.07746   0.07746   0.11663   0.13491   0.19063

 Mulliken charges and spin densities:
               1          2
     1  Fe   1.133300   3.898318
     2  O   -1.133300   0.101682
 Sum of Mulliken charges =  -0.00000   4.00000

 Dipole moment (field-independent basis, Debye):
    X=              0.0000    Y=              0.0000    Z=              9.2462  Tot=              9.2462
 Quadrupole moment (field-independent basis, Debye-Ang):
   XX=            -18.5895   YY=            -18.5895   ZZ=            -23.2112
   XY=              0.0000   XZ=              0.0000   YZ=              0.0000

 \\#P ROCCSD(T)=(MaxCyc=150, Full)/Gen SCF=(maxcycle=400) Pseudo=Read I
 65413\CCSD=-139.6657364\CCSD(T)=-139.7154009\RMSD=9.488e-09\PG=C*V [C*
 Normal termination of Gaussian 16 at Sun Mar 25 02:47:24 2018.
