 Gaussian 16, Revision A.03,
 Gaussian 16:  ES64L-G16RevA.03 25-Dec-2016

 ----------------------------------------------------------------------
 #P ROCCSD(T)=(MaxCyc=150, Full)/Gen SCF=(maxcycle=400) Pseudo=Read Int
 egral(NoXCTest) Pop=Regular MaxDisk=500GB
 ----------------------------------------------------------------------

 ---
 FeO
 ---
 Symbolic Z-matrix:
 Charge =  0 Multiplicity = 5

                         Standard orientation:
 ---------------------------------------------------------------------
 Center     Atomic      Atomic             Coordinates (Angstroms)
 Number     Number       Type             X           Y           Z
 ---------------------------------------------------------------------
      1         26           0        0.000000    0.000000    0.400000
      2          8           0        0.000000    0.000000   -1.300000
 ---------------------------------------------------------------------

 SCF Done:  E(ROHF) =  -138.668694213     A.U. after   28 cycles
 E2 =    -0.9766418379D+00 EUMP2 =    -0.13964533605117D+03
 CCSD(T)
 CCSD(T)= -0.13967427160D+03

 Unable to determine electronic state:  partially filled degenerate orbitals.
 Alpha  occ. eigenvalues --   -4.59434  -3.06108  -2.99033  -2.99033  -1.11642
 Alpha  occ. eigenvalues --   -0.69804  -0.69804  -0.67285  -0.66392  -0.61473
 Alpha  occ. eigenvalues --   -0.35187  -0.34313  -0.34313
 Alpha virt. eigenvalues --   -0.05448   0.01684   0.01684   0.01776   0.04027
 Alpha virt. eigenvalues --    0.07006   0.07006   0.08749   0.09485   0.09516
 Alpha virt. eigenvalues --    0.10623   0.10623   0.13787   0.14838   0.24512

 Mulliken charges and spin densities:
               1          2
     1  Fe   1.151272   3.884932
     2  O   -1.151272   0.115068
 Sum of Mulliken charges =  -0.00000   4.00000

 Dipole moment (field-independent basis, Debye):
    X=              0.0000    Y=              0.0000    Z=              9.2530  Tot=              9.2530
 Quadrupole moment (field-independent basis, Debye-Ang):
   XX=            -18.5888   YY=            -18.5888   ZZ=            -23.2322
   XY=              0.0000   XZ=              0.0000   YZ=              0.0000

 \\#P ROCCSD(T)=(MaxCyc=150, Full)/Gen SCF=(maxcycle=400) Pseudo=Read I
 83704\CCSD=-139.6268724\CCSD(T)=-139.6742716\RMSD=4.213e-09\PG=C*V [C*
 Normal termination of Gaussian 16 at Sun Mar 25 00:33:57 2018.
