 Gaussian 16, Revision A.03,
 Gaussian 16:  ES64L-G16RevA.03 25-Dec-2016

 ----------------------------------------------------------------------
 #P ROCCSD(T)=(maxcyc=150, Full, SaveAmplitudes, ReadAmplitudes)/Gen 5d
  7f SCF=(maxcycles=300) Integral(NoXCTest) MaxDisk=500GB Pop=Regular P
 seudo=Read Guess=Read IOp(5/15=2)
 ----------------------------------------------------------------------

 ---
 CrH
 ---
 Symbolic Z-matrix:
 Charge =  0 Multiplicity = 6

                         Standard orientation:
 ---------------------------------------------------------------------
 Center     Atomic      Atomic             Coordinates (Angstroms)
 Number     Number       Type             X           Y           Z
 ---------------------------------------------------------------------
      1         24           0        0.000000    0.000000    0.052000
      2          1           0        0.000000    0.000000   -1.248000
 ---------------------------------------------------------------------

 SCF Done:  E(ROHF) =  -86.3207036821     A.U. after   31 cycles
 E2 =    -0.5525498323D+00 EUMP2 =    -0.86873253514397D+02
 CCSD(T)
 CCSD(T)= -0.86902306850D+02

 The electronic state is 6-SG.
 Alpha  occ. eigenvalues --   -3.79580  -2.51288  -2.51288  -2.48625  -0.46170
 Alpha  occ. eigenvalues --   -0.44460  -0.44460  -0.41864  -0.41864  -0.26133
 Alpha virt. eigenvalues --    0.01583   0.01583   0.02169   0.02327   0.05838
 Alpha virt. eigenvalues --    0.05838   0.06109   0.07854   0.07854   0.08116
 Alpha virt. eigenvalues --    0.08116   0.08353   0.09975   0.19057   0.21387

 Mulliken charges and spin densities:
               1          2
     1  Cr   0.760691   4.997231
     2  H   -0.760691   0.002769
 Sum of Mulliken charges =  -0.00000   5.00000

 Dipole moment (field-independent basis, Debye):
    X=              0.0000    Y=              0.0000    Z=              1.5755  Tot=              1.5755
 Quadrupole moment (field-independent basis, Debye-Ang):
   XX=            -17.0238   YY=            -17.0238   ZZ=            -20.3162
   XY=              0.0000   XZ=              0.0000   YZ=              0.0000

 \\#P ROCCSD(T)=(maxcyc=150, Full, SaveAmplitudes, ReadAmplitudes)/Gen
 76\CCSD=-86.8837102\CCSD(T)=-86.9023069\RMSD=6.184e-09\PG=C*V [C*(H1Cr
 Normal termination of Gaussian 16 at Mon Feb 26 00:32:49 2018.
