 Gaussian 16, Revision A.03,
 Gaussian 16:  ES64L-G16RevA.03 25-Dec-2016

 ----------------------------------------------------------------------
 #P ROCCSD(T)=(maxcyc=150, Full, SaveAmplitudes, ReadAmplitudes)/Gen 5d
  7f SCF=(maxcycles=300) Integral(NoXCTest) MaxDisk=500GB Pop=Regular P
 seudo=Read Guess=Read
 ----------------------------------------------------------------------

 ---
 CrO
 ---
 Symbolic Z-matrix:
 Charge =  0 Multiplicity = 5

                         Standard orientation:
 ---------------------------------------------------------------------
 Center     Atomic      Atomic             Coordinates (Angstroms)
 Number     Number       Type             X           Y           Z
 ---------------------------------------------------------------------
      1         24           0        0.000000    0.000000    0.425000
      2          8           0        0.000000    0.000000   -1.275000
 ---------------------------------------------------------------------

 SCF Done:  E(ROHF) =  -101.818231991     A.U. after   27 cycles
 E2 =    -0.8981850038D+00 EUMP2 =    -0.10271641699482D+03
 CCSD(T)
 CCSD(T)= -0.10275847651D+03

 Unable to determine electronic state:  an orbital has unidentified symmetry.
 Alpha  occ. eigenvalues --   -3.73348  -2.50368  -2.45725  -2.44542  -1.12061
 Alpha  occ. eigenvalues --   -0.56030  -0.55868  -0.54148  -0.49630  -0.36722
 Alpha  occ. eigenvalues --   -0.33950  -0.32804
 Alpha virt. eigenvalues --   -0.03380   0.00772   0.01378   0.01744   0.03131
 Alpha virt. eigenvalues --    0.04582   0.05255   0.05256   0.05680   0.05968
 Alpha virt. eigenvalues --    0.06090   0.06641   0.11182   0.11478   0.13561

 Mulliken charges and spin densities:
               1          2
     1  Cr   1.117147   3.917743
     2  O   -1.117147   0.082257
 Sum of Mulliken charges =  -0.00000   4.00000

 Dipole moment (field-independent basis, Debye):
    X=              0.0000    Y=              0.0000    Z=              8.8285  Tot=              8.8285
 Quadrupole moment (field-independent basis, Debye-Ang):
   XX=            -19.7677   YY=            -18.7370   ZZ=            -23.1318
   XY=              0.0000   XZ=              0.0000   YZ=              0.0000

 \\#P ROCCSD(T)=(maxcyc=150, Full, SaveAmplitudes, ReadAmplitudes)/Gen
 -0=-102.716417\CCSD=-102.7065566\CCSD(T)=-102.7584765\RMSD=3.659e-09\P
 Normal termination of Gaussian 16 at Sat Mar 10 09:56:34 2018.
