 Gaussian 16, Revision A.03,
 Gaussian 16:  ES64L-G16RevA.03 25-Dec-2016

 ----------------------------------------------------------------------
 #P ROCCSD(T)=(MaxCyc=150, Full)/Gen SCF=(maxcycle=400) Pseudo=Read Int
 egral(NoXCTest) Pop=Regular MaxDisk=500GB Guess=Read IOp(5/15=2)
 ----------------------------------------------------------------------

 --
 Fe
 --
 Symbolic Z-matrix:
 Charge =  0 Multiplicity = 5

                         Standard orientation:
 ---------------------------------------------------------------------
 Center     Atomic      Atomic             Coordinates (Angstroms)
 Number     Number       Type             X           Y           Z
 ---------------------------------------------------------------------
      1         26           0        0.000000    0.000000    0.000000
 ---------------------------------------------------------------------

 SCF Done:  E(ROHF) =  -123.122424789     A.U. after    1 cycles
 E2 =    -0.7130513013D+00 EUMP2 =    -0.12383547609069D+03
 CCSD(T)
 CCSD(T)= -0.12385056757D+03

 Unable to determine electronic state:  an orbital has unidentified symmetry.
 Alpha  occ. eigenvalues --   -4.39699  -3.02810  -2.94870  -2.94870  -0.69955
 Alpha  occ. eigenvalues --   -0.68935  -0.68935  -0.65732  -0.60398  -0.27550
 Alpha virt. eigenvalues --    0.01718   0.01888   0.01888   0.02199   0.05620
 Alpha virt. eigenvalues --    0.05979   0.05979   0.06209   0.06215   0.06215
 Alpha virt. eigenvalues --    0.06230   0.06238   0.10786   0.18912   0.19396

 Mulliken charges and spin densities:
               1          2
     1  Fe  -0.000000   4.000000
 Sum of Mulliken charges =  -0.00000   4.00000

 Dipole moment (field-independent basis, Debye):
    X=              0.0000    Y=              0.0000    Z=              0.0000  Tot=              0.0000
 Quadrupole moment (field-independent basis, Debye-Ang):
   XX=            -17.9876   YY=            -17.9876   ZZ=            -17.7244
   XY=              0.0000   XZ=              0.0000   YZ=             -0.0000

 1\1\GINC-C438-014\SP\ROCCSD(T)-Full\Gen\Fe1(5)\GWANG18\24-Mar-2018\0\\
 #P ROCCSD(T)=(MaxCyc=150, Full)/Gen SCF=(maxcycle=400) Pseudo=Read Int
 egral(NoXCTest) Pop=Regular MaxDisk=500GB Guess=Read IOp(5/15=2)\\Fe\\
 0,5\Fe,0,0.,0.,0.\\Version=ES64L-G16RevA.03\HF=-123.1224248\MP2=-123.8
 354761\MP3=-123.8219494\PUHF=-123.1224248\PMP2-0=-123.8354761\MP4SDQ=-
 123.8293787\CCSD=-123.8282861\CCSD(T)=-123.8505676\RMSD=4.186e-10\PG=O
 H [O(Fe1)]\\@

 Normal termination of Gaussian 16 at Sat Mar 24 01:35:36 2018.
