 Gaussian 16, Revision A.03,
 Gaussian 16:  ES64L-G16RevA.03 25-Dec-2016

 ----------------------------------------------------------------------
 #P ROCCSD(T)=(MaxCyc=150, Full)/Gen SCF=(maxcycle=400) Pseudo=Read Int
 egral(NoXCTest) Pop=Regular MaxDisk=500GB Guess=Read IOp(5/15=2)
 ----------------------------------------------------------------------

 --
 Fe
 --
 Symbolic Z-matrix:
 Charge =  0 Multiplicity = 5

                         Standard orientation:
 ---------------------------------------------------------------------
 Center     Atomic      Atomic             Coordinates (Angstroms)
 Number     Number       Type             X           Y           Z
 ---------------------------------------------------------------------
      1         26           0        0.000000    0.000000    0.000000
 ---------------------------------------------------------------------

 SCF Done:  E(ROHF) =  -123.121879299     A.U. after    1 cycles
 E2 =    -0.7001571617D+00 EUMP2 =    -0.12382203646084D+03
 CCSD(T)
 CCSD(T)= -0.12383881607D+03

 Unable to determine electronic state:  an orbital has unidentified symmetry.
 Alpha  occ. eigenvalues --   -4.39677  -3.02812  -2.94873  -2.94872  -0.69955
 Alpha  occ. eigenvalues --   -0.68935  -0.68935  -0.65733  -0.60395  -0.27550
 Alpha virt. eigenvalues --    0.01747   0.01924   0.01924   0.02705   0.05836
 Alpha virt. eigenvalues --    0.06204   0.06204   0.06763   0.06769   0.06769
 Alpha virt. eigenvalues --    0.06788   0.06797   0.14334   0.20169   0.20735

 Mulliken charges and spin densities:
               1          2
     1  Fe   0.000000   4.000000
 Sum of Mulliken charges =   0.00000   4.00000

 Dipole moment (field-independent basis, Debye):
    X=              0.0000    Y=              0.0000    Z=              0.0000  Tot=              0.0000
 Quadrupole moment (field-independent basis, Debye-Ang):
   XX=            -17.7253   YY=            -17.9888   ZZ=            -17.9888
   XY=              0.0000   XZ=             -0.0000   YZ=             -0.0000

 1\1\GINC-C438-014\SP\ROCCSD(T)-Full\Gen\Fe1(5)\GWANG18\24-Mar-2018\0\\
 #P ROCCSD(T)=(MaxCyc=150, Full)/Gen SCF=(maxcycle=400) Pseudo=Read Int
 egral(NoXCTest) Pop=Regular MaxDisk=500GB Guess=Read IOp(5/15=2)\\Fe\\
 0,5\Fe,0,0.,0.,0.\\Version=ES64L-G16RevA.03\HF=-123.1218793\MP2=-123.8
 220365\MP3=-123.8103742\PUHF=-123.1218793\PMP2-0=-123.8220365\MP4SDQ=-
 123.8181112\CCSD=-123.8169295\CCSD(T)=-123.8388161\RMSD=1.459e-10\PG=O
 H [O(Fe1)]\\@

 Normal termination of Gaussian 16 at Sat Mar 24 00:51:39 2018.
