 Gaussian 16, Revision A.03,
 Gaussian 16:  ES64L-G16RevA.03 25-Dec-2016

 ----------------------------------------------------------------------
 #P ROCCSD(T)=(MaxCyc=150, Full)/Gen SCF=(maxcycle=400) Pseudo=Read Int
 egral(NoXCTest) Pop=Regular MaxDisk=500GB Guess=Read IOp(5/15=2)
 ----------------------------------------------------------------------

 --
 Fe
 --
 Symbolic Z-matrix:
 Charge =  0 Multiplicity = 5

                         Standard orientation:
 ---------------------------------------------------------------------
 Center     Atomic      Atomic             Coordinates (Angstroms)
 Number     Number       Type             X           Y           Z
 ---------------------------------------------------------------------
      1         26           0        0.000000    0.000000    0.000000
 ---------------------------------------------------------------------

 SCF Done:  E(ROHF) =  -123.121037616     A.U. after    1 cycles
 E2 =    -0.6677775322D+00 EUMP2 =    -0.12378881514788D+03
 CCSD(T)
 CCSD(T)= -0.12380689608D+03

 Unable to determine electronic state:  an orbital has unidentified symmetry.
 Alpha  occ. eigenvalues --   -4.39725  -3.02830  -2.94890  -2.94890  -0.69943
 Alpha  occ. eigenvalues --   -0.68923  -0.68923  -0.65722  -0.60384  -0.27553
 Alpha virt. eigenvalues --    0.01844   0.02043   0.02043   0.02825   0.06604
 Alpha virt. eigenvalues --    0.07007   0.07007   0.10059   0.10073   0.10073
 Alpha virt. eigenvalues --    0.10116   0.10145   0.14874   0.24836   0.25535

 Mulliken charges and spin densities:
               1          2
     1  Fe  -0.000000   4.000000
 Sum of Mulliken charges =  -0.00000   4.00000

 Dipole moment (field-independent basis, Debye):
    X=              0.0000    Y=              0.0000    Z=              0.0000  Tot=              0.0000
 Quadrupole moment (field-independent basis, Debye-Ang):
   XX=            -17.7253   YY=            -17.9909   ZZ=            -17.9909
   XY=              0.0000   XZ=             -0.0000   YZ=             -0.0000

 1\1\GINC-C438-014\SP\ROCCSD(T)-Full\Gen\Fe1(5)\GWANG18\24-Mar-2018\0\\
 #P ROCCSD(T)=(MaxCyc=150, Full)/Gen SCF=(maxcycle=400) Pseudo=Read Int
 egral(NoXCTest) Pop=Regular MaxDisk=500GB Guess=Read IOp(5/15=2)\\Fe\\
 0,5\Fe,0,0.,0.,0.\\Version=ES64L-G16RevA.03\HF=-123.1210376\MP2=-123.7
 888151\MP3=-123.7787753\PUHF=-123.1210376\PMP2-0=-123.7888151\MP4SDQ=-
 123.7874353\CCSD=-123.7861322\CCSD(T)=-123.8068961\RMSD=1.002e-10\PG=O
 H [O(Fe1)]\\@

 Normal termination of Gaussian 16 at Sat Mar 24 00:30:32 2018.
