 Gaussian 16, Revision A.03,
 Gaussian 16:  ES64L-G16RevA.03 25-Dec-2016

 ----------------------------------------------------------------------
 #P ROCCSD(T)=(maxcyc=150, Full, SaveAmplitudes, ReadAmplitudes)/Gen 5d
  7f SCF=(maxcycles=300) Integral(NoXCTest) MaxDisk=500GB Pop=Regular P
 seudo=Read Guess=Read IOp(5/15=2)
 ----------------------------------------------------------------------

 ---
 MnO
 ---
 Symbolic Z-matrix:
 Charge =  0 Multiplicity = 6

                         Standard orientation:
 ---------------------------------------------------------------------
 Center     Atomic      Atomic             Coordinates (Angstroms)
 Number     Number       Type             X           Y           Z
 ---------------------------------------------------------------------
      1         25           0        0.000000    0.000000    0.460606
      2          8           0        0.000000    0.000000   -1.439394
 ---------------------------------------------------------------------

 SCF Done:  E(ROHF) =  -119.174483303     A.U. after   33 cycles
 E2 =    -0.8843356167D+00 EUMP2 =    -0.12005881891922D+03
 CCSD(T)
 CCSD(T)= -0.12008680671D+03

 The electronic state is 6-SG.
 Alpha  occ. eigenvalues --   -4.18127  -2.82369  -2.82369  -2.81925  -1.10345
 Alpha  occ. eigenvalues --   -0.65974  -0.65974  -0.65886  -0.65886  -0.63377
 Alpha  occ. eigenvalues --   -0.34748  -0.34748  -0.32353
 Alpha virt. eigenvalues --   -0.05340   0.01298   0.01298   0.01615   0.03800
 Alpha virt. eigenvalues --    0.06244   0.06244   0.08236   0.08314   0.08314
 Alpha virt. eigenvalues --    0.09303   0.09303   0.12664   0.13901   0.22453

 Mulliken charges and spin densities:
               1          2
     1  Mn   1.061924   4.953800
     2  O   -1.061924   0.046200
 Sum of Mulliken charges =  -0.00000   5.00000

 Dipole moment (field-independent basis, Debye):
    X=              0.0000    Y=              0.0000    Z=              9.2661  Tot=              9.2661
 Quadrupole moment (field-independent basis, Debye-Ang):
   XX=            -19.3289   YY=            -19.3289   ZZ=            -25.2082
   XY=              0.0000   XZ=              0.0000   YZ=              0.0000

 \\#P ROCCSD(T)=(maxcyc=150, Full, SaveAmplitudes, ReadAmplitudes)/Gen
 .0552502\CCSD=-120.0475067\CCSD(T)=-120.0868067\RMSD=2.273e-09\PG=C*V
 Normal termination of Gaussian 16 at Sat Mar 10 10:30:49 2018.
