 Gaussian 16, Revision A.03,
 Gaussian 16:  ES64L-G16RevA.03 25-Dec-2016

 ----------------------------------------------------------------------
 #P ROCCSD(T)=(MaxCyc=150, Full)/Gen SCF=(maxcycle=400) Pseudo=Read Int
 egral(NoXCTest) Pop=Regular MaxDisk=500GB Guess=Read IOp(5/15=2)
 ----------------------------------------------------------------------

 ---
 CuH
 ---
 Symbolic Z-matrix:
 Charge =  0 Multiplicity = 1

                         Standard orientation:
 ---------------------------------------------------------------------
 Center     Atomic      Atomic             Coordinates (Angstroms)
 Number     Number       Type             X           Y           Z
 ---------------------------------------------------------------------
      1         29           0        0.000000    0.000000    0.056667
      2          1           0        0.000000    0.000000   -1.643333
 ---------------------------------------------------------------------

 SCF Done:  E(ROHF) =  -197.116825700     A.U. after    8 cycles
 E2 =    -0.1145534173D+01 EUMP2 =    -0.19826235987324D+03
 CCSD(T)
 CCSD(T)= -0.19818604368D+03

 The electronic state is 1-SG.
 Alpha  occ. eigenvalues --   -5.24910  -3.51666  -3.51593  -3.51593  -0.49736
 Alpha  occ. eigenvalues --   -0.49736  -0.49624  -0.49624  -0.49617  -0.33304
 Alpha virt. eigenvalues --   -0.00334   0.02498   0.02498   0.03112   0.03887
 Alpha virt. eigenvalues --    0.07656   0.08464   0.08464   0.12159   0.12159
 Alpha virt. eigenvalues --    0.12198   0.12350   0.12350   0.14762   0.18430

 Mulliken charges and spin densities:
               1          2
     1  Cu   0.317083   0.000000
     2  H   -0.317083   0.000000
 Sum of Mulliken charges =  -0.00000   0.00000

 Dipole moment (field-independent basis, Debye):
    X=              0.0000    Y=              0.0000    Z=              4.3884  Tot=              4.3884
 Quadrupole moment (field-independent basis, Debye-Ang):
   XX=            -13.6363   YY=            -13.6363   ZZ=            -17.2457
   XY=              0.0000   XZ=              0.0000   YZ=              0.0000

 P ROCCSD(T)=(MaxCyc=150, Full)/Gen SCF=(maxcycle=400) Pseudo=Read Inte
 2-0=-198.2623599\MP4SDQ=-198.2133559\CCSD=-198.1475582\CCSD(T)=-198.18
 Normal termination of Gaussian 16 at Thu May  3 11:11:24 2018.
