 Gaussian 16, Revision A.03,
 Gaussian 16:  ES64L-G16RevA.03 25-Dec-2016

 ----------------------------------------------------------------------
 #P ROCCSD(T)=(maxcyc=150, Full)/Gen 5d 7f SCF=(maxcycles=300) Integral
 (NoXCTest) MaxDisk=500GB Pop=Regular Pseudo=Read Guess=Read
 ----------------------------------------------------------------------

 ---
 MnH
 ---
 Symbolic Z-matrix:
 Charge =  0 Multiplicity = 7

                         Standard orientation:
 ---------------------------------------------------------------------
 Center     Atomic      Atomic             Coordinates (Angstroms)
 Number     Number       Type             X           Y           Z
 ---------------------------------------------------------------------
      1         25           0        0.000000    0.000000    0.053846
      2          1           0        0.000000    0.000000   -1.346154
 ---------------------------------------------------------------------

 SCF Done:  E(ROHF) =  -104.024050381     A.U. after   20 cycles
 E2 =    -0.6076522377D+00 EUMP2 =    -0.10463170261844D+03
 CCSD(T)
 CCSD(T)= -0.10465227157D+03

 The electronic state is 7-SG.
 Alpha  occ. eigenvalues --   -4.15519  -2.80242  -2.80060  -2.80060  -0.65422
 Alpha  occ. eigenvalues --   -0.63594  -0.63594  -0.63155  -0.63155  -0.41900
 Alpha  occ. eigenvalues --   -0.24902
 Alpha virt. eigenvalues --    0.01299   0.01299   0.02014   0.03069   0.05143
 Alpha virt. eigenvalues --    0.05143   0.05698   0.05830   0.05830   0.06184
 Alpha virt. eigenvalues --    0.06184   0.08524   0.13917   0.14781   0.17964

 Mulliken charges and spin densities:
               1          2
     1  Mn   0.402706   5.929972
     2  H   -0.402706   0.070028
 Sum of Mulliken charges =   0.00000   6.00000

 Dipole moment (field-independent basis, Debye):
    X=              0.0000    Y=              0.0000    Z=              0.2903  Tot=              0.2903
 Quadrupole moment (field-independent basis, Debye-Ang):
   XX=            -15.9770   YY=            -15.9770   ZZ=            -25.4344
   XY=              0.0000   XZ=              0.0000   YZ=              0.0000

 \\#P ROCCSD(T)=(maxcyc=150, Full)/Gen 5d 7f SCF=(maxcycles=300) Integr
 0=-104.6317026\MP4SDQ=-104.6341717\CCSD=-104.6352417\CCSD(T)=-104.6522
 Normal termination of Gaussian 16 at Tue Feb 13 01:02:11 2018.
