 Gaussian 16, Revision A.03,
 Gaussian 16:  ES64L-G16RevA.03 25-Dec-2016

 ----------------------------------------------------------------------
 #P ROCCSD(T)=(MaxCyc=150, Full)/Gen SCF=(maxcycle=400) Integral(DKHSO,
  NoXCTest) Pop=Regular MaxDisk=500GB Guess=Read IOp(5/15=2)
 ----------------------------------------------------------------------

 ---
 FeH
 ---
 Symbolic Z-matrix:
 Charge =  0 Multiplicity = 4

                         Standard orientation:
 ---------------------------------------------------------------------
 Center     Atomic      Atomic             Coordinates (Angstroms)
 Number     Number       Type             X           Y           Z
 ---------------------------------------------------------------------
      1         26           0        0.000000    0.000000    0.048148
      2          1           0        0.000000    0.000000   -1.251852
 ---------------------------------------------------------------------

 SCF Done:  E(ROHF) =  -1271.79471697     A.U. after   36 cycles
 E2 =    -0.1176263890D+01 EUMP2 =    -0.12729709808578D+04
 CCSD(T)
 CCSD(T)= -0.12729500444D+04

 Unable to determine electronic state:  an orbital has unidentified symmetry.
 Alpha  occ. eigenvalues -- -263.56582 -32.34871 -27.41795 -27.41408 -27.41408
 Alpha  occ. eigenvalues --   -4.24500  -2.80102  -2.78210  -2.78210  -0.53744
 Alpha  occ. eigenvalues --   -0.53744  -0.51722  -0.51488  -0.46808  -0.30864
 Alpha virt. eigenvalues --    0.00264   0.02470   0.02470   0.02939   0.04624
 Alpha virt. eigenvalues --    0.08323   0.08323   0.09584   0.10300   0.10300
 Alpha virt. eigenvalues --    0.10325   0.10361   0.10556   0.16718   0.24830

 Mulliken charges and spin densities:
               1          2
     1  Fe   0.370493   2.993762
     2  H   -0.370493   0.006238
 Sum of Mulliken charges =  -0.00000   3.00000

 Dipole moment (field-independent basis, Debye):
    X=              0.0000    Y=              0.0000    Z=              3.3704  Tot=              3.3704
 Quadrupole moment (field-independent basis, Debye-Ang):
   XX=            -16.7116   YY=            -16.7116   ZZ=            -16.3353
   XY=              0.0000   XZ=              0.0000   YZ=              0.0000

 \\#P ROCCSD(T)=(MaxCyc=150, Full)/Gen SCF=(maxcycle=400) Integral(DKHS
 709809\MP4SDQ=-1272.9336598\CCSD=-1272.9193475\CCSD(T)=-1272.9500444\R
 Normal termination of Gaussian 16 at Wed Mar  7 11:38:08 2018.
