 Gaussian 16, Revision A.03,
 Gaussian 16:  ES64L-G16RevA.03 25-Dec-2016

 ----------------------------------------------------------------------
 #P ROCCSD(T)=(MaxCyc=150, Full)/Gen SCF=(maxcycle=400) Integral(DKHSO,
  NoXCTest) Pop=Regular MaxDisk=500GB Guess=Read IOp(5/15=2)
 ----------------------------------------------------------------------

 ---
 FeH
 ---
 Symbolic Z-matrix:
 Charge =  0 Multiplicity = 4

                         Standard orientation:
 ---------------------------------------------------------------------
 Center     Atomic      Atomic             Coordinates (Angstroms)
 Number     Number       Type             X           Y           Z
 ---------------------------------------------------------------------
      1         26           0        0.000000    0.000000    0.048148
      2          1           0        0.000000    0.000000   -1.251852
 ---------------------------------------------------------------------

 SCF Done:  E(ROHF) =  -1271.79642892     A.U. after   28 cycles
 E2 =    -0.1226487193D+01 EUMP2 =    -0.12730229161086D+04
 CCSD(T)
 CCSD(T)= -0.12730002417D+04

 Unable to determine electronic state:  partially filled degenerate orbitals.
 Alpha  occ. eigenvalues -- -263.56570 -32.34844 -27.41764 -27.41380 -27.41380
 Alpha  occ. eigenvalues --   -4.24483  -2.80084  -2.78195  -2.78195  -0.53742
 Alpha  occ. eigenvalues --   -0.53742  -0.51722  -0.51492  -0.46811  -0.30865
 Alpha virt. eigenvalues --    0.00235   0.02255   0.02255   0.02680   0.04437
 Alpha virt. eigenvalues --    0.06251   0.06818   0.06818   0.06850   0.06862
 Alpha virt. eigenvalues --    0.07561   0.07561   0.09380   0.17116   0.17996

 Mulliken charges and spin densities:
               1          2
     1  Fe   0.284650   2.992910
     2  H   -0.284650   0.007090
 Sum of Mulliken charges =  -0.00000   3.00000

 Dipole moment (field-independent basis, Debye):
    X=              0.0000    Y=             -0.0000    Z=              3.3676  Tot=              3.3676
 Quadrupole moment (field-independent basis, Debye-Ang):
   XX=            -16.7014   YY=            -16.7014   ZZ=            -16.3399
   XY=             -0.0000   XZ=              0.0000   YZ=             -0.0000

 \\#P ROCCSD(T)=(MaxCyc=150, Full)/Gen SCF=(maxcycle=400) Integral(DKHS
 .0229161\MP4SDQ=-1272.9820546\CCSD=-1272.9680415\CCSD(T)=-1273.0002417
 Normal termination of Gaussian 16 at Wed Mar  7 15:58:31 2018.
