 Gaussian 16, Revision A.03,
 Gaussian 16:  ES64L-G16RevA.03 25-Dec-2016

 ----------------------------------------------------------------------
 #P ROCCSD(T)=(maxcyc=150, Full, SaveAmplitudes, ReadAmplitudes)/Gen 5d
  7f SCF=(maxcycles=300) Integral(NoXCTest) MaxDisk=500GB Pop=Regular P
 seudo=Read Guess=Read
 ----------------------------------------------------------------------

 ---
 MnO
 ---
 Symbolic Z-matrix:
 Charge =  0 Multiplicity = 6

                         Standard orientation:
 ---------------------------------------------------------------------
 Center     Atomic      Atomic             Coordinates (Angstroms)
 Number     Number       Type             X           Y           Z
 ---------------------------------------------------------------------
      1         25           0        0.000000    0.000000    0.387879
      2          8           0        0.000000    0.000000   -1.212121
 ---------------------------------------------------------------------

 SCF Done:  E(ROHF) =  -119.160551896     A.U. after   24 cycles
 E2 =    -0.9469018659D+00 EUMP2 =    -0.12010745376205D+03
 CCSD(T)
 CCSD(T)= -0.12013256012D+03

 The electronic state is 6-SG.
 Alpha  occ. eigenvalues --   -4.14193  -2.78849  -2.78849  -2.77966  -1.14567
 Alpha  occ. eigenvalues --   -0.64490  -0.64490  -0.62632  -0.62632  -0.56740
 Alpha  occ. eigenvalues --   -0.35094  -0.35094  -0.34041
 Alpha virt. eigenvalues --   -0.03338   0.01540   0.01540   0.02014   0.03390
 Alpha virt. eigenvalues --    0.05823   0.05823   0.05981   0.05981   0.06296
 Alpha virt. eigenvalues --    0.07220   0.07220   0.11852   0.12859   0.17958

 Mulliken charges and spin densities:
               1          2
     1  Mn   1.182414   4.859271
     2  O   -1.182414   0.140729
 Sum of Mulliken charges =  -0.00000   5.00000

 Dipole moment (field-independent basis, Debye):
    X=              0.0000    Y=              0.0000    Z=              8.2637  Tot=              8.2637
 Quadrupole moment (field-independent basis, Debye-Ang):
   XX=            -18.8304   YY=            -18.8304   ZZ=            -22.9934
   XY=              0.0000   XZ=              0.0000   YZ=              0.0000

 \\#P ROCCSD(T)=(maxcyc=150, Full, SaveAmplitudes, ReadAmplitudes)/Gen
 9.1605519\PMP2-0=-120.1074538\CCSD=-120.0890831\CCSD(T)=-120.1325601\R
 Normal termination of Gaussian 16 at Fri Mar  9 18:53:52 2018.
