 Gaussian 16, Revision A.03,
 Gaussian 16:  ES64L-G16RevA.03 25-Dec-2016

 ----------------------------------------------------------------------
 #P ROCCSD(T)=(MaxCyc=150, Window=(7,0))/Gen SCF=(maxcycle=400) Integra
 l(DKHSO, NoXCTest) Pop=Regular MaxDisk=500GB Guess=Read IOp(5/15=2)
 ----------------------------------------------------------------------

 ---
 NiO
 ---
 Symbolic Z-matrix:
 Charge =  0 Multiplicity = 3

                         Standard orientation:
 ---------------------------------------------------------------------
 Center     Atomic      Atomic             Coordinates (Angstroms)
 Number     Number       Type             X           Y           Z
 ---------------------------------------------------------------------
      1         28           0        0.000000    0.000000    0.333333
      2          8           0        0.000000    0.000000   -1.166667
 ---------------------------------------------------------------------

 SCF Done:  E(ROHF) =  -1593.89645767     A.U. after   22 cycles
 E2 =    -0.1242021020D+01 EUMP2 =    -0.15951384786900D+04
 CCSD(T)
 CCSD(T)= -0.15951333445D+04

 The electronic state is 3-SG.
 Alpha  occ. eigenvalues -- -308.80350 -38.67392 -33.15317 -33.11897 -33.11897
 Alpha  occ. eigenvalues --  -20.48644  -5.10804  -3.48436  -3.39798  -3.39798
 Alpha  occ. eigenvalues --   -1.18926  -0.79119  -0.79119  -0.71254  -0.69059
 Alpha  occ. eigenvalues --   -0.69059  -0.39604  -0.39604  -0.37789
 Alpha virt. eigenvalues --   -0.04264   0.02065   0.02065   0.02276   0.03858
 Alpha virt. eigenvalues --    0.07155   0.07155   0.07618   0.08104   0.08104
 Alpha virt. eigenvalues --    0.09407   0.09407   0.13017   0.15219   0.22385

 Mulliken charges and spin densities:
               1          2
     1  Ni   0.966551   1.839131
     2  O   -0.966551   0.160869
 Sum of Mulliken charges =  -0.00000   2.00000

 Dipole moment (field-independent basis, Debye):
    X=              0.0000    Y=              0.0000    Z=              7.3589  Tot=              7.3589
 Quadrupole moment (field-independent basis, Debye-Ang):
   XX=            -18.5363   YY=            -18.5363   ZZ=            -20.4910
   XY=              0.0000   XZ=              0.0000   YZ=              0.0000

 1\1\GINC-C476-121\SP\ROCCSD(T)-RW\Gen\Ni1O1(3)\GWANG18\18-Mar-2018\0\\
 #P ROCCSD(T)=(MaxCyc=150, Window=(7,0))/Gen SCF=(maxcycle=400) Integra
 l(DKHSO, NoXCTest) Pop=Regular MaxDisk=500GB Guess=Read IOp(5/15=2)\\N
 iO\\0,3\Ni,0,0.,0.,0.\O,0,0.,0.,1.5\\Version=ES64L-G16RevA.03\State=3-
 SG\HF=-1593.8964577\MP2=-1595.1384787\MP3=-1594.9799527\PUHF=-1593.896
 4577\PMP2-0=-1595.1384787\MP4SDQ=-1595.0994689\CCSD=-1595.0748403\CCSD
 (T)=-1595.1333445\RMSD=3.422e-09\PG=C*V [C*(O1Ni1)]\\@

 Normal termination of Gaussian 16 at Sun Mar 18 04:10:07 2018.
