 Gaussian 16, Revision A.03,
 Gaussian 16:  ES64L-G16RevA.03 25-Dec-2016

 ----------------------------------------------------------------------
 #P ROCCSD(T)=(maxcyc=150, Full, SaveAmplitudes, ReadAmplitudes)/Gen 5d
  7f SCF=(maxcycles=300) Integral(NoXCTest) MaxDisk=500GB Pop=Regular P
 seudo=Read Guess=Read IOp(5/15=2)
 ----------------------------------------------------------------------

 ---
 TiO
 ---
 Symbolic Z-matrix:
 Charge =  0 Multiplicity = 3

                         Standard orientation:
 ---------------------------------------------------------------------
 Center     Atomic      Atomic             Coordinates (Angstroms)
 Number     Number       Type             X           Y           Z
 ---------------------------------------------------------------------
      1         22           0        0.000000    0.000000    0.346667
      2          8           0        0.000000    0.000000   -0.953333
 ---------------------------------------------------------------------

 SCF Done:  E(ROHF) =  -73.2828420795     A.U. after   23 cycles
 E2 =    -0.7323622163D+00 EUMP2 =    -0.74015204295756D+02
 CCSD(T)
 CCSD(T)= -0.74040196543D+02

 Unable to determine electronic state:  an orbital has unidentified symmetry.
 Alpha  occ. eigenvalues --   -2.94961  -1.96036  -1.82473  -1.82473  -1.14660
 Alpha  occ. eigenvalues --   -0.59197  -0.59197  -0.52515  -0.35826  -0.21643
 Alpha virt. eigenvalues --    0.01192   0.01192   0.02319   0.02551   0.04815
 Alpha virt. eigenvalues --    0.04815   0.05012   0.05165   0.05327   0.05796
 Alpha virt. eigenvalues --    0.05796   0.08529   0.11827   0.13736   0.14634

 Mulliken charges and spin densities:
               1          2
     1  Ti   0.694639   2.041398
     2  O   -0.694639  -0.041398
 Sum of Mulliken charges =  -0.00000   2.00000

 Dipole moment (field-independent basis, Debye):
    X=              0.0000    Y=              0.0000    Z=              0.6313  Tot=              0.6313
 Quadrupole moment (field-independent basis, Debye-Ang):
   XX=            -22.0159   YY=            -22.0159   ZZ=            -27.0852
   XY=              0.0000   XZ=              0.0000   YZ=              0.0000

 \\#P ROCCSD(T)=(maxcyc=150, Full, SaveAmplitudes, ReadAmplitudes)/Gen
 .0056655\CCSD(T)=-74.0401965\RMSD=4.747e-09\PG=C*V [C*(O1Ti1)]\\@
 Normal termination of Gaussian 16 at Sat Mar 10 00:56:13 2018.
