 Gaussian 16, Revision A.03,
 Gaussian 16:  ES64L-G16RevA.03 25-Dec-2016

 ----------------------------------------------------------------------
 #P ROCCSD(T)=(maxcyc=150, Full, SaveAmplitudes, ReadAmplitudes)/Gen 5d
  7f SCF=(maxcycles=300) Integral(NoXCTest) MaxDisk=500GB Pop=Regular P
 seudo=Read Guess=Read
 ----------------------------------------------------------------------

 ---
 MnH
 ---
 Symbolic Z-matrix:
 Charge =  0 Multiplicity = 7

                         Standard orientation:
 ---------------------------------------------------------------------
 Center     Atomic      Atomic             Coordinates (Angstroms)
 Number     Number       Type             X           Y           Z
 ---------------------------------------------------------------------
      1         25           0        0.000000    0.000000    0.061538
      2          1           0        0.000000    0.000000   -1.538462
 ---------------------------------------------------------------------

 SCF Done:  E(ROHF) =  -104.062684688     A.U. after   20 cycles
 E2 =    -0.5990040839D+00 EUMP2 =    -0.10466168877178D+03
 CCSD(T)
 CCSD(T)= -0.10468258280D+03

 The electronic state is 7-SG.
 Alpha  occ. eigenvalues --   -4.23837  -2.79384  -2.79384  -2.79237  -0.64379
 Alpha  occ. eigenvalues --   -0.64156  -0.64156  -0.63496  -0.63496  -0.41404
 Alpha  occ. eigenvalues --   -0.25730
 Alpha virt. eigenvalues --    0.01234   0.01234   0.02114   0.02968   0.05095
 Alpha virt. eigenvalues --    0.05095   0.05665   0.05815   0.05815   0.06194
 Alpha virt. eigenvalues --    0.06194   0.08875   0.13647   0.14264   0.18048

 Mulliken charges and spin densities:
               1          2
     1  Mn   0.403860   5.951579
     2  H   -0.403860   0.048421
 Sum of Mulliken charges =  -0.00000   6.00000

 Dipole moment (field-independent basis, Debye):
    X=              0.0000    Y=              0.0000    Z=              0.9472  Tot=              0.9472
 Quadrupole moment (field-independent basis, Debye-Ang):
   XX=            -16.1250   YY=            -16.1250   ZZ=            -26.0173
   XY=              0.0000   XZ=              0.0000   YZ=              0.0000

 \\#P ROCCSD(T)=(maxcyc=150, Full, SaveAmplitudes, ReadAmplitudes)/Gen
 4.0626847\PMP2-0=-104.6616888\CCSD=-104.6660422\CCSD(T)=-104.6825828\R
 Normal termination of Gaussian 16 at Mon Feb 26 09:08:24 2018.
