 Gaussian 16, Revision A.03,
 Gaussian 16:  ES64L-G16RevA.03 25-Dec-2016

 ----------------------------------------------------------------------
 #P ROCCSD(T)=(maxcyc=150, Full, SaveAmplitudes, ReadAmplitudes)/Gen 5d
  7f SCF=(maxcycles=300, VShift=400) Integral(NoXCTest) MaxDisk=500GB P
 op=Full Pseudo=Read Guess=Read
 ----------------------------------------------------------------------

 ---
 MnH
 ---
 Symbolic Z-matrix:
 Charge =  0 Multiplicity = 7

                         Standard orientation:
 ---------------------------------------------------------------------
 Center     Atomic      Atomic             Coordinates (Angstroms)
 Number     Number       Type             X           Y           Z
 ---------------------------------------------------------------------
      1         25           0        0.000000    0.000000    0.053846
      2          1           0        0.000000    0.000000   -1.346154
 ---------------------------------------------------------------------

 SCF Done:  E(ROHF) =  -104.217328753     A.U. after   24 cycles
 E2 =    -0.6153534401D+00 EUMP2 =    -0.10483268219264D+03
 CCSD(T)
 CCSD(T)= -0.10485271148D+03

 The electronic state is 7-SG.
 Alpha  occ. eigenvalues --   -4.13413  -2.76285  -2.76032  -2.76032  -0.66176
 Alpha  occ. eigenvalues --   -0.64495  -0.64495  -0.64085  -0.64085  -0.41973
 Alpha  occ. eigenvalues --   -0.24777
 Alpha virt. eigenvalues --    0.01316   0.01316   0.02016   0.03071   0.05175
 Alpha virt. eigenvalues --    0.05175   0.05690   0.05826   0.05826   0.06185
 Alpha virt. eigenvalues --    0.06185   0.08528   0.13939   0.14724   0.17956

 Mulliken charges and spin densities:
               1          2
     1  Mn   0.404543   5.929627
     2  H   -0.404543   0.070373
 Sum of Mulliken charges =  -0.00000   6.00000

 Dipole moment (field-independent basis, Debye):
    X=              0.0000    Y=              0.0000    Z=              0.3002  Tot=              0.3002
 Quadrupole moment (field-independent basis, Debye-Ang):
   XX=            -15.9180   YY=            -15.9180   ZZ=            -25.4203
   XY=              0.0000   XZ=              0.0000   YZ=              0.0000

 \\#P ROCCSD(T)=(maxcyc=150, Full, SaveAmplitudes, ReadAmplitudes)/Gen
 \PUHF=-104.2173288\PMP2-0=-104.8326822\CCSD=-104.8353377\CCSD(T)=-104.
 Normal termination of Gaussian 16 at Wed Apr  4 04:58:53 2018.
