 Gaussian 16, Revision A.03,
 Gaussian 16:  ES64L-G16RevA.03 25-Dec-2016

 ----------------------------------------------------------------------
 #P ROCCSD(T)=(maxcyc=150, Full, SaveAmplitudes, ReadAmplitudes)/Gen 5d
  7f SCF=(maxcycles=300) Integral(NoXCTest) MaxDisk=500GB Pop=Regular P
 seudo=Read Guess=Read
 ----------------------------------------------------------------------

 ---
 ScO
 ---
 Symbolic Z-matrix:
 Charge =  0 Multiplicity = 2

                         Standard orientation:
 ---------------------------------------------------------------------
 Center     Atomic      Atomic             Coordinates (Angstroms)
 Number     Number       Type             X           Y           Z
 ---------------------------------------------------------------------
      1         21           0        0.000000    0.000000    0.441379
      2          8           0        0.000000    0.000000   -1.158621
 ---------------------------------------------------------------------

 SCF Done:  E(ROHF) =  -62.0847253114     A.U. after   17 cycles
 E2 =    -0.7138642954D+00 EUMP2 =    -0.62798589606823D+02
 CCSD(T)
 CCSD(T)= -0.62823446284D+02

 The electronic state is 2-SG.
 Alpha  occ. eigenvalues --   -2.66952  -1.66732  -1.60953  -1.60953  -1.11537
 Alpha  occ. eigenvalues --   -0.44017  -0.44017  -0.43778  -0.24104
 Alpha virt. eigenvalues --    0.00308   0.00308   0.01515   0.02096   0.02736
 Alpha virt. eigenvalues --    0.02736   0.03029   0.03029   0.03284   0.03398
 Alpha virt. eigenvalues --    0.03398   0.05165   0.07284   0.07284   0.09318

 Mulliken charges and spin densities:
               1          2
     1  Sc   1.262219   0.989731
     2  O   -1.262219   0.010269
 Sum of Mulliken charges =  -0.00000   1.00000

 Dipole moment (field-independent basis, Debye):
    X=              0.0000    Y=              0.0000    Z=              3.9317  Tot=              3.9317
 Quadrupole moment (field-independent basis, Debye-Ang):
   XX=            -21.8075   YY=            -21.8075   ZZ=            -31.5678
   XY=              0.0000   XZ=              0.0000   YZ=              0.0000

 \\#P ROCCSD(T)=(maxcyc=150, Full, SaveAmplitudes, ReadAmplitudes)/Gen
 847253\PMP2-0=-62.7985896\CCSD=-62.7835233\CCSD(T)=-62.8234463\RMSD=5.
 Normal termination of Gaussian 16 at Wed Feb 21 03:48:23 2018.
