 Gaussian 16, Revision A.03,
 Gaussian 16:  ES64L-G16RevA.03 25-Dec-2016

 ----------------------------------------------------------------------
 #P ROCCSD(T)=(maxcyc=150, Full)/Gen 5d 7f SCF=(maxcycles=300, NoVarAcc
 , VShift=200) MaxDisk=100GB Pop=Regular Pseudo=Read Guess=Read IOp(5/1
 5=2)
 ----------------------------------------------------------------------

 --
 Cr
 --
 Symbolic Z-matrix:
 Charge =  0 Multiplicity = 7

                         Standard orientation:
 ---------------------------------------------------------------------
 Center     Atomic      Atomic             Coordinates (Angstroms)
 Number     Number       Type             X           Y           Z
 ---------------------------------------------------------------------
      1         24           0        0.000000    0.000000    0.000000
 ---------------------------------------------------------------------

 SCF Done:  E(ROHF) =  -86.4719548003     A.U. after   41 cycles
 E2 =    -0.5311919354D+00 EUMP2 =    -0.87003146735777D+02
 CCSD(T)
 CCSD(T)= -0.87014005115D+02

 The electronic state is 7-A1G.
 Alpha  occ. eigenvalues --   -3.59568  -2.29033  -2.29033  -2.29033  -0.37397
 Alpha  occ. eigenvalues --   -0.37397  -0.37397  -0.37397  -0.37397  -0.22547
 Alpha virt. eigenvalues --    0.01827   0.01827   0.01827   0.03172   0.06599
 Alpha virt. eigenvalues --    0.06599   0.06599   0.07929   0.07929   0.07929
 Alpha virt. eigenvalues --    0.07929   0.07929   0.21065   0.23350   0.23350

 Mulliken charges and spin densities:
               1          2
     1  Cr   0.000000   6.000000
 Sum of Mulliken charges =   0.00000   6.00000

 Dipole moment (field-independent basis, Debye):
    X=              0.0000    Y=              0.0000    Z=              0.0000  Tot=              0.0000
 Quadrupole moment (field-independent basis, Debye-Ang):
   XX=            -16.2888   YY=            -16.2888   ZZ=            -16.2888
   XY=              0.0000   XZ=              0.0000   YZ=             -0.0000

 1\1\GINC-C455-071\SP\ROCCSD(T)-Full\Gen\Cr1(7)\AANNABE\04-Apr-2018\0\\
 #P ROCCSD(T)=(maxcyc=150, Full)/Gen 5d 7f SCF=(maxcycles=300, NoVarAcc
 , VShift=200) MaxDisk=100GB Pop=Regular Pseudo=Read Guess=Read IOp(5/1
 5=2)\\Cr\\0,7\Cr,0,0.,0.,0.\\Version=ES64L-G16RevA.03\State=7-A1G\HF=-
 86.4719548\MP2=-87.0031467\MP3=-86.9943768\PUHF=-86.4719548\PMP2-0=-87
 .0031467\MP4SDQ=-86.9990239\CCSD=-86.9977871\CCSD(T)=-87.0140051\RMSD=
 9.071e-09\PG=OH [O(Cr1)]\\@

 Normal termination of Gaussian 16 at Wed Apr  4 07:42:12 2018.
