 Gaussian 16, Revision A.03,
 Gaussian 16:  ES64L-G16RevA.03 25-Dec-2016

 ----------------------------------------------------------------------
 #P ROCCSD(T)=(maxcyc=150, FrzINGC)/Gen 5d 7f SCF=(maxcycles=300) Integ
 ral(NoXCTest, DKHSO) MaxDisk=500GB Pop=Regular Guess=Read
 ----------------------------------------------------------------------

 --
 Sc
 --
 Symbolic Z-matrix:
 Charge =  0 Multiplicity = 2

                         Standard orientation:
 ---------------------------------------------------------------------
 Center     Atomic      Atomic             Coordinates (Angstroms)
 Number     Number       Type             X           Y           Z
 ---------------------------------------------------------------------
      1         21           0        0.000000    0.000000    0.000000
 ---------------------------------------------------------------------

 SCF Done:  E(ROHF) =  -763.289753476     A.U. after   14 cycles
 E2 =    -0.3601400774D+00 EUMP2 =    -0.76364989355384D+03
 CCSD(T)
 CCSD(T)= -0.76368299745D+03

 Unable to determine electronic state:  an orbital has unidentified symmetry.
 Alpha  occ. eigenvalues -- -166.82352 -19.26665 -15.69105 -15.68925 -15.68925
 Alpha  occ. eigenvalues --   -2.61754  -1.61970  -1.61970  -1.58600  -0.33962
 Alpha  occ. eigenvalues --   -0.21575
 Alpha virt. eigenvalues --    0.01186   0.01278   0.01278   0.02124   0.02886
 Alpha virt. eigenvalues --    0.02889   0.02889   0.02898   0.02919   0.04319
 Alpha virt. eigenvalues --    0.04440   0.04440   0.08107   0.08223   0.08223

 Mulliken charges and spin densities:
               1          2
     1  Sc  -0.000000   1.000000
 Sum of Mulliken charges =  -0.00000   1.00000

 Dipole moment (field-independent basis, Debye):
    X=             -0.0000    Y=             -0.0000    Z=              0.0000  Tot=              0.0000
 Quadrupole moment (field-independent basis, Debye-Ang):
   XX=            -23.7629   YY=            -23.4528   ZZ=            -23.7629
   XY=              0.0000   XZ=             -0.0000   YZ=             -0.0000

 P ROCCSD(T)=(maxcyc=150, FrzINGC)/Gen 5d 7f SCF=(maxcycles=300) Integr
 594\CCSD=-763.669217\CCSD(T)=-763.6829974\RMSD=4.346e-09\PG=OH [O(Sc1)
 Normal termination of Gaussian 16 at Fri Feb 16 11:02:40 2018.
