 Gaussian 16, Revision A.03,
 Gaussian 16:  ES64L-G16RevA.03 25-Dec-2016

 ----------------------------------------------------------------------
 #P ROCCSD(T)=(maxcyc=150, Full, SaveAmplitudes, ReadAmplitudes)/Gen 5d
  7f SCF=(maxcycles=300) Integral(NoXCTest) MaxDisk=500GB Pop=Regular P
 seudo=Read Guess=Read IOp(5/15=2)
 ----------------------------------------------------------------------

 ---
 MnO
 ---
 Symbolic Z-matrix:
 Charge =  0 Multiplicity = 6

                         Standard orientation:
 ---------------------------------------------------------------------
 Center     Atomic      Atomic             Coordinates (Angstroms)
 Number     Number       Type             X           Y           Z
 ---------------------------------------------------------------------
      1         25           0        0.000000    0.000000    0.460606
      2          8           0        0.000000    0.000000   -1.439394
 ---------------------------------------------------------------------

 SCF Done:  E(ROHF) =  -119.344742821     A.U. after   33 cycles
 E2 =    -0.9007734280D+00 EUMP2 =    -0.12024551624855D+03
 CCSD(T)
 CCSD(T)= -0.12027380953D+03

 The electronic state is 6-SG.
 Alpha  occ. eigenvalues --   -4.11344  -2.77699  -2.77699  -2.77345  -1.10157
 Alpha  occ. eigenvalues --   -0.65796  -0.65796  -0.65730  -0.65730  -0.63315
 Alpha  occ. eigenvalues --   -0.34522  -0.34522  -0.32376
 Alpha virt. eigenvalues --   -0.05517   0.01265   0.01265   0.01569   0.03801
 Alpha virt. eigenvalues --    0.06191   0.06191   0.08221   0.08306   0.08306
 Alpha virt. eigenvalues --    0.09294   0.09294   0.12619   0.13904   0.22271

 Mulliken charges and spin densities:
               1          2
     1  Mn   1.069607   4.957002
     2  O   -1.069607   0.042998
 Sum of Mulliken charges =  -0.00000   5.00000

 Dipole moment (field-independent basis, Debye):
    X=              0.0000    Y=              0.0000    Z=              9.3763  Tot=              9.3763
 Quadrupole moment (field-independent basis, Debye-Ang):
   XX=            -19.2442   YY=            -19.2442   ZZ=            -25.1170
   XY=              0.0000   XZ=              0.0000   YZ=              0.0000

 \\#P ROCCSD(T)=(maxcyc=150, Full, SaveAmplitudes, ReadAmplitudes)/Gen
 .2424109\CCSD=-120.2340237\CCSD(T)=-120.2738095\RMSD=3.809e-09\PG=C*V
 Normal termination of Gaussian 16 at Wed Mar 14 05:29:31 2018.
