 Gaussian 16, Revision A.03,
 Gaussian 16:  ES64L-G16RevA.03 25-Dec-2016

 ----------------------------------------------------------------------
 #P ROCCSD(T)=(maxcyc=150, Full)/Gen 5d 7f SCF=(maxcycles=300) Integral
 (NoXCTest) MaxDisk=500GB Pop=Regular Pseudo=Read Guess=Read
 ----------------------------------------------------------------------

 ---
 ScH
 ---
 Symbolic Z-matrix:
 Charge =  0 Multiplicity = 1

                         Standard orientation:
 ---------------------------------------------------------------------
 Center     Atomic      Atomic             Coordinates (Angstroms)
 Number     Number       Type             X           Y           Z
 ---------------------------------------------------------------------
      1         21           0        0.000000    0.000000    0.054545
      2          1           0        0.000000    0.000000   -1.145455
 ---------------------------------------------------------------------

 SCF Done:  E(ROHF) =  -46.5454478726     A.U. after    9 cycles
 E2 =    -0.4419436639D+00 EUMP2 =    -0.46987391536474D+02
 CCSD(T)
 CCSD(T)= -0.47023037393D+02

 The electronic state is 1-SG.
 Alpha  occ. eigenvalues --   -2.61421  -1.63602  -1.59000  -1.59000  -0.46937
 Alpha  occ. eigenvalues --   -0.21451
 Alpha virt. eigenvalues --    0.01309   0.01309   0.01342   0.01672   0.02607
 Alpha virt. eigenvalues --    0.02607   0.02627   0.02641   0.02641   0.04051
 Alpha virt. eigenvalues --    0.04392   0.04392   0.07044   0.07419   0.07419

 Mulliken charges and spin densities:
               1          2
     1  Sc   0.290106   0.000000
     2  H   -0.290106   0.000000
 Sum of Mulliken charges =  -0.00000   0.00000

 Dipole moment (field-independent basis, Debye):
    X=              0.0000    Y=              0.0000    Z=              0.7760  Tot=              0.7760
 Quadrupole moment (field-independent basis, Debye-Ang):
   XX=            -23.6614   YY=            -23.6614   ZZ=            -22.5568
   XY=              0.0000   XZ=              0.0000   YZ=              0.0000

 P ROCCSD(T)=(maxcyc=150, Full)/Gen 5d 7f SCF=(maxcycles=300) Integral(
 873915\MP4SDQ=-47.004572\CCSD=-47.0041493\CCSD(T)=-47.0230374\RMSD=2.0
 Normal termination of Gaussian 16 at Mon Feb 12 19:56:30 2018.
