 Gaussian 16, Revision A.03,
 Gaussian 16:  ES64L-G16RevA.03 25-Dec-2016

 ----------------------------------------------------------------------
 #P ROCCSD(T)=(maxcyc=150, Full, SaveAmplitudes, ReadAmplitudes)/Gen 5d
  7f SCF=(maxcycles=300) Integral(NoXCTest) MaxDisk=500GB Pop=Regular P
 seudo=Read Guess=Read
 ----------------------------------------------------------------------

 ---
 MnO
 ---
 Symbolic Z-matrix:
 Charge =  0 Multiplicity = 6

                         Standard orientation:
 ---------------------------------------------------------------------
 Center     Atomic      Atomic             Coordinates (Angstroms)
 Number     Number       Type             X           Y           Z
 ---------------------------------------------------------------------
      1         25           0        0.000000    0.000000    0.436364
      2          8           0        0.000000    0.000000   -1.363636
 ---------------------------------------------------------------------

 SCF Done:  E(ROHF) =  -119.185923775     A.U. after   22 cycles
 E2 =    -0.9292248252D+00 EUMP2 =    -0.12011514859995D+03
 CCSD(T)
 CCSD(T)= -0.12014186023D+03

 The electronic state is 6-SG.
 Alpha  occ. eigenvalues --   -4.17027  -2.81248  -2.81248  -2.80704  -1.10620
 Alpha  occ. eigenvalues --   -0.65161  -0.65161  -0.64882  -0.64882  -0.61680
 Alpha  occ. eigenvalues --   -0.33787  -0.33787  -0.33251
 Alpha virt. eigenvalues --   -0.05222   0.01181   0.01181   0.01410   0.03358
 Alpha virt. eigenvalues --    0.05689   0.05689   0.05715   0.05715   0.06382
 Alpha virt. eigenvalues --    0.06899   0.06899   0.10990   0.12590   0.17841

 Mulliken charges and spin densities:
               1          2
     1  Mn   1.125499   4.936447
     2  O   -1.125499   0.063553
 Sum of Mulliken charges =  -0.00000   5.00000

 Dipole moment (field-independent basis, Debye):
    X=              0.0000    Y=              0.0000    Z=              9.4334  Tot=              9.4334
 Quadrupole moment (field-independent basis, Debye-Ang):
   XX=            -19.0446   YY=            -19.0446   ZZ=            -24.5676
   XY=              0.0000   XZ=              0.0000   YZ=              0.0000

 \\#P ROCCSD(T)=(maxcyc=150, Full, SaveAmplitudes, ReadAmplitudes)/Gen
 9.1859238\PMP2-0=-120.1151486\CCSD=-120.09914\CCSD(T)=-120.1418602\RMS
 Normal termination of Gaussian 16 at Fri Mar  9 19:11:34 2018.
