 Gaussian 16, Revision A.03,
 Gaussian 16:  ES64L-G16RevA.03 25-Dec-2016

 ----------------------------------------------------------------------
 #P ROCCSD(T)=(maxcyc=150, Full, SaveAmplitudes, ReadAmplitudes)/Gen 5d
  7f SCF=(maxcycles=300, VShift=400) Integral(NoXCTest) MaxDisk=500GB P
 op=Full Pseudo=Read Guess=Read IOp(5/15=2)
 ----------------------------------------------------------------------

 ---
 CrO
 ---
 Symbolic Z-matrix:
 Charge =  0 Multiplicity = 5

                         Standard orientation:
 ---------------------------------------------------------------------
 Center     Atomic      Atomic             Coordinates (Angstroms)
 Number     Number       Type             X           Y           Z
 ---------------------------------------------------------------------
      1         24           0        0.000000    0.000000    0.375000
      2          8           0        0.000000    0.000000   -1.125000
 ---------------------------------------------------------------------

 SCF Done:  E(ROHF) =  -101.496651738     A.U. after   43 cycles
 E2 =    -0.8774972909D+00 EUMP2 =    -0.10237414902926D+03
 CCSD(T)
 CCSD(T)= -0.10239616652D+03

 Unable to determine electronic state:  an orbital has unidentified symmetry.
 Alpha  occ. eigenvalues --   -3.76441  -2.48606  -2.44560  -2.42022  -1.21223
 Alpha  occ. eigenvalues --   -0.63317  -0.57357  -0.55845  -0.50512  -0.48108
 Alpha  occ. eigenvalues --   -0.39621  -0.30119
 Alpha virt. eigenvalues --    0.00804   0.01171   0.01934   0.03202   0.04677
 Alpha virt. eigenvalues --    0.04963   0.06379   0.07619   0.07628   0.08019
 Alpha virt. eigenvalues --    0.08451   0.08567   0.12847   0.14491   0.16824

 Mulliken charges and spin densities:
               1          2
     1  Cr   1.018680   3.829958
     2  O   -1.018680   0.170042
 Sum of Mulliken charges =  -0.00000   4.00000

 Dipole moment (field-independent basis, Debye):
    X=              0.0000    Y=              0.0000    Z=              4.4806  Tot=              4.4806
 Quadrupole moment (field-independent basis, Debye-Ang):
   XX=            -20.8574   YY=            -19.7485   ZZ=            -24.3778
   XY=              0.0000   XZ=              0.0000   YZ=              0.0000

 \\#P ROCCSD(T)=(maxcyc=150, Full, SaveAmplitudes, ReadAmplitudes)/Gen
 267\CCSD=-102.3485133\CCSD(T)=-102.3961665\RMSD=8.448e-09\PG=C*V [C*(O
 Normal termination of Gaussian 16 at Thu Apr  5 19:39:06 2018.
