 Gaussian 16, Revision A.03,
 Gaussian 16:  ES64L-G16RevA.03 25-Dec-2016

 ----------------------------------------------------------------------
 #P ROCCSD(T)=(maxcyc=150, Full, SaveAmplitudes, ReadAmplitudes)/Gen 5d
  7f SCF=(maxcycles=300) Integral(NoXCTest) MaxDisk=500GB Pop=Regular P
 seudo=Read Guess=Read
 ----------------------------------------------------------------------

 ---
 CrH
 ---
 Symbolic Z-matrix:
 Charge =  0 Multiplicity = 6

                         Standard orientation:
 ---------------------------------------------------------------------
 Center     Atomic      Atomic             Coordinates (Angstroms)
 Number     Number       Type             X           Y           Z
 ---------------------------------------------------------------------
      1         24           0        0.000000    0.000000    0.052000
      2          1           0        0.000000    0.000000   -1.248000
 ---------------------------------------------------------------------

 SCF Done:  E(ROHF) =  -86.8266600854     A.U. after   30 cycles
 E2 =    -0.6016537621D+00 EUMP2 =    -0.87428313847491D+02
 CCSD(T)
 CCSD(T)= -0.87455291688D+02

 The electronic state is 6-SG.
 Alpha  occ. eigenvalues --   -3.67750  -2.37521  -2.37521  -2.35190  -0.47573
 Alpha  occ. eigenvalues --   -0.47573  -0.44853  -0.44785  -0.44785  -0.25416
 Alpha virt. eigenvalues --    0.01638   0.01638   0.01772   0.02261   0.04665
 Alpha virt. eigenvalues --    0.05461   0.05461   0.05474   0.05474   0.05781
 Alpha virt. eigenvalues --    0.05781   0.06250   0.09436   0.13071   0.16912

 Mulliken charges and spin densities:
               1          2
     1  Cr   0.369742   4.982511
     2  H   -0.369742   0.017489
 Sum of Mulliken charges =  -0.00000   5.00000

 Dipole moment (field-independent basis, Debye):
    X=              0.0000    Y=              0.0000    Z=              2.0216  Tot=              2.0216
 Quadrupole moment (field-independent basis, Debye-Ang):
   XX=            -16.6303   YY=            -16.6303   ZZ=            -19.5632
   XY=              0.0000   XZ=              0.0000   YZ=              0.0000

 \\#P ROCCSD(T)=(maxcyc=150, Full, SaveAmplitudes, ReadAmplitudes)/Gen
 266601\PMP2-0=-87.4283138\CCSD=-87.4342795\CCSD(T)=-87.4552917\RMSD=6.
 Normal termination of Gaussian 16 at Mon Feb 26 01:08:57 2018.
