 Gaussian 16, Revision A.03,
 Gaussian 16:  ES64L-G16RevA.03 25-Dec-2016

 ----------------------------------------------------------------------
 #P ROCCSD(T)=(maxcyc=150, Full, SaveAmplitudes, ReadAmplitudes)/Gen 5d
  7f SCF=(maxcycles=300) Integral(NoXCTest) MaxDisk=500GB Pop=Regular P
 seudo=Read Guess=Read
 ----------------------------------------------------------------------

 ---
 MnH
 ---
 Symbolic Z-matrix:
 Charge =  0 Multiplicity = 7

                         Standard orientation:
 ---------------------------------------------------------------------
 Center     Atomic      Atomic             Coordinates (Angstroms)
 Number     Number       Type             X           Y           Z
 ---------------------------------------------------------------------
      1         25           0        0.000000    0.000000    0.050000
      2          1           0        0.000000    0.000000   -1.250000
 ---------------------------------------------------------------------

 SCF Done:  E(ROHF) =  -104.174480158     A.U. after   20 cycles
 E2 =    -0.6186087620D+00 EUMP2 =    -0.10479308892007D+03
 CCSD(T)
 CCSD(T)= -0.10481265754D+03

 The electronic state is 7-SG.
 Alpha  occ. eigenvalues --   -4.16957  -2.76165  -2.75622  -2.75622  -0.67162
 Alpha  occ. eigenvalues --   -0.64251  -0.64251  -0.64064  -0.64064  -0.41947
 Alpha  occ. eigenvalues --   -0.24196
 Alpha virt. eigenvalues --    0.01345   0.01345   0.01954   0.03130   0.05200
 Alpha virt. eigenvalues --    0.05200   0.05710   0.05830   0.05830   0.06174
 Alpha virt. eigenvalues --    0.06174   0.08349   0.13976   0.15064   0.17901

 Mulliken charges and spin densities:
               1          2
     1  Mn   0.455797   5.912847
     2  H   -0.455797   0.087153
 Sum of Mulliken charges =  -0.00000   6.00000

 Dipole moment (field-independent basis, Debye):
    X=              0.0000    Y=              0.0000    Z=             -0.0275  Tot=              0.0275
 Quadrupole moment (field-independent basis, Debye-Ang):
   XX=            -15.8863   YY=            -15.8863   ZZ=            -25.2793
   XY=              0.0000   XZ=              0.0000   YZ=              0.0000

 \\#P ROCCSD(T)=(maxcyc=150, Full, SaveAmplitudes, ReadAmplitudes)/Gen
 4.1744802\PMP2-0=-104.7930889\CCSD=-104.7949968\CCSD(T)=-104.8126575\R
 Normal termination of Gaussian 16 at Mon Feb 26 01:36:58 2018.
