 Gaussian 16, Revision A.03,
 Gaussian 16:  ES64L-G16RevA.03 25-Dec-2016

 ----------------------------------------------------------------------
 #P ROCCSD(T)=(maxcyc=150, Full)/Gen 5d 7f SCF=(maxcycles=300, NoVarAcc
 , VShift=200) MaxDisk=100GB Pop=Regular Pseudo=Read Guess=Read IOp(5/1
 5=2)
 ----------------------------------------------------------------------

 --
 Cr
 --
 Symbolic Z-matrix:
 Charge =  0 Multiplicity = 7

                         Standard orientation:
 ---------------------------------------------------------------------
 Center     Atomic      Atomic             Coordinates (Angstroms)
 Number     Number       Type             X           Y           Z
 ---------------------------------------------------------------------
      1         24           0        0.000000    0.000000    0.000000
 ---------------------------------------------------------------------

 SCF Done:  E(ROHF) =  -86.2202987987     A.U. after   29 cycles
 E2 =    -0.5254687259D+00 EUMP2 =    -0.86745767524554D+02
 CCSD(T)
 CCSD(T)= -0.86757266265D+02

 The electronic state is 7-A1G.
 Alpha  occ. eigenvalues --   -3.57872  -2.32593  -2.32593  -2.32593  -0.36846
 Alpha  occ. eigenvalues --   -0.36846  -0.36846  -0.36846  -0.36846  -0.22639
 Alpha virt. eigenvalues --    0.01794   0.01794   0.01794   0.03169   0.06512
 Alpha virt. eigenvalues --    0.06512   0.06512   0.07935   0.07935   0.07935
 Alpha virt. eigenvalues --    0.07935   0.07935   0.21065   0.23168   0.23168

 Mulliken charges and spin densities:
               1          2
     1  Cr  -0.000000   6.000000
 Sum of Mulliken charges =  -0.00000   6.00000

 Dipole moment (field-independent basis, Debye):
    X=              0.0000    Y=              0.0000    Z=              0.0000  Tot=              0.0000
 Quadrupole moment (field-independent basis, Debye-Ang):
   XX=            -16.4370   YY=            -16.4370   ZZ=            -16.4370
   XY=             -0.0000   XZ=              0.0000   YZ=              0.0000

 1\1\GINC-C455-083\SP\ROCCSD(T)-Full\Gen\Cr1(7)\AANNABE\01-Apr-2018\0\\
 #P ROCCSD(T)=(maxcyc=150, Full)/Gen 5d 7f SCF=(maxcycles=300, NoVarAcc
 , VShift=200) MaxDisk=100GB Pop=Regular Pseudo=Read Guess=Read IOp(5/1
 5=2)\\Cr\\0,7\Cr,0,0.,0.,0.\\Version=ES64L-G16RevA.03\State=7-A1G\HF=-
 86.2202988\MP2=-86.7457675\MP3=-86.7383598\PUHF=-86.2202988\PMP2-0=-86
 .7457675\MP4SDQ=-86.7423091\CCSD=-86.7412846\CCSD(T)=-86.7572663\RMSD=
 9.483e-09\PG=OH [O(Cr1)]\\@

 Normal termination of Gaussian 16 at Sun Apr  1 12:54:49 2018.
