 Gaussian 16, Revision A.03,
 Gaussian 16:  ES64L-G16RevA.03 25-Dec-2016

 ----------------------------------------------------------------------
 #P ROCCSD(T)=(maxcyc=150, Full)/Gen 5d 7f SCF=(maxcycles=300) MaxDisk=
 500GB Pop=Regular Pseudo=Read Guess=Read
 ----------------------------------------------------------------------

 --
 Sc
 --
 Symbolic Z-matrix:
 Charge =  0 Multiplicity = 2

                         Standard orientation:
 ---------------------------------------------------------------------
 Center     Atomic      Atomic             Coordinates (Angstroms)
 Number     Number       Type             X           Y           Z
 ---------------------------------------------------------------------
      1         21           0        0.000000    0.000000    0.000000
 ---------------------------------------------------------------------

 SCF Done:  E(ROHF) =  -46.2476484422     A.U. after   22 cycles
 E2 =    -0.3750202789D+00 EUMP2 =    -0.46622668721058D+02
 CCSD(T)
 CCSD(T)= -0.46659754037D+02

 Unable to determine electronic state:  an orbital has unidentified symmetry.
 Alpha  occ. eigenvalues --   -2.68923  -1.62318  -1.62318  -1.58475  -0.33957
 Alpha  occ. eigenvalues --   -0.21577
 Alpha virt. eigenvalues --    0.01224   0.01323   0.01323   0.02285   0.03912
 Alpha virt. eigenvalues --    0.03920   0.03920   0.03942   0.04008   0.04761
 Alpha virt. eigenvalues --    0.04886   0.04886   0.10120   0.10455   0.10455

 Mulliken charges and spin densities:
               1          2
     1  Sc  -0.000000   1.000000
 Sum of Mulliken charges =  -0.00000   1.00000

 Dipole moment (field-independent basis, Debye):
    X=              0.0000    Y=             -0.0000    Z=              0.0000  Tot=              0.0000
 Quadrupole moment (field-independent basis, Debye-Ang):
   XX=            -23.3327   YY=            -23.3327   ZZ=            -23.0220
   XY=              0.0000   XZ=              0.0000   YZ=              0.0000

 1\1\GINC-C506-014\SP\ROCCSD(T)-Full\Gen\Sc1(2)\AANNABE\16-Feb-2018\0\\
 #P ROCCSD(T)=(maxcyc=150, Full)/Gen 5d 7f SCF=(maxcycles=300) MaxDisk=
 500GB Pop=Regular Pseudo=Read Guess=Read\\Sc\\0,2\Sc,0,0.,0.,0.\\Versi
 on=ES64L-G16RevA.03\HF=-46.2476484\MP2=-46.6226687\MP3=-46.644837\PUHF
 =-46.2476484\PMP2-0=-46.6226687\MP4SDQ=-46.6447043\CCSD=-46.6449574\CC
 SD(T)=-46.659754\RMSD=4.621e-09\PG=OH [O(Sc1)]\\@

 Normal termination of Gaussian 16 at Fri Feb 16 14:43:19 2018.
