 Gaussian 16, Revision A.03,
 Gaussian 16:  ES64L-G16RevA.03 25-Dec-2016

 ----------------------------------------------------------------------
 #P ROCCSD(T)=(maxcyc=150, Full)/Gen 5d 7f SCF=(maxcycles=300) Integral
 (NoXCTest, DKHSO) MaxDisk=500GB Pop=Regular IOp(5/15=2) Guess=Read
 ----------------------------------------------------------------------

 ---
 CrH
 ---
 Symbolic Z-matrix:
 Charge =  0 Multiplicity = 6

                         Standard orientation:
 ---------------------------------------------------------------------
 Center     Atomic      Atomic             Coordinates (Angstroms)
 Number     Number       Type             X           Y           Z
 ---------------------------------------------------------------------
      1         24           0        0.000000    0.000000    0.064000
      2          1           0        0.000000    0.000000   -1.536000
 ---------------------------------------------------------------------

 SCF Done:  E(ROHF) =  -1050.20189274     A.U. after   25 cycles
 E2 =    -0.9822595328D+00 EUMP2 =    -0.10511841522715D+04
 CCSD(T)
 CCSD(T)= -0.10512158488D+04

 The electronic state is 6-SG.
 Alpha  occ. eigenvalues -- -222.18949 -26.78187 -22.41599 -22.41599 -22.41557
 Alpha  occ. eigenvalues --   -3.65602  -2.41056  -2.41056  -2.37273  -0.53072
 Alpha  occ. eigenvalues --   -0.53072  -0.49998  -0.49998  -0.41757  -0.25745
 Alpha virt. eigenvalues --    0.01305   0.01305   0.01876   0.02195   0.04394
 Alpha virt. eigenvalues --    0.04889   0.04889   0.04966   0.04966   0.05236
 Alpha virt. eigenvalues --    0.05236   0.06317   0.08539   0.11645   0.15101

 Mulliken charges and spin densities:
               1          2
     1  Cr   0.386216   4.975539
     2  H   -0.386216   0.024461
 Sum of Mulliken charges =  -0.00000   5.00000

 Dipole moment (field-independent basis, Debye):
    X=              0.0000    Y=              0.0000    Z=              1.9671  Tot=              1.9671
 Quadrupole moment (field-independent basis, Debye-Ang):
   XX=            -17.2721   YY=            -17.2721   ZZ=            -23.5825
   XY=             -0.0000   XZ=             -0.0000   YZ=              0.0000

 \\#P ROCCSD(T)=(maxcyc=150, Full)/Gen 5d 7f SCF=(maxcycles=300) Integr
 Normal termination of Gaussian 16 at Wed Feb 14 05:04:17 2018.
