 Gaussian 16, Revision A.03,
 Gaussian 16:  ES64L-G16RevA.03 25-Dec-2016

 ----------------------------------------------------------------------
 #P ROCCSD(T)=(maxcyc=150, Full, SaveAmplitudes, ReadAmplitudes)/Gen 5d
  7f SCF=(maxcycles=300) Integral(NoXCTest) MaxDisk=500GB Pop=Regular P
 seudo=Read Guess=Read
 ----------------------------------------------------------------------

 ---
 MnH
 ---
 Symbolic Z-matrix:
 Charge =  0 Multiplicity = 7

                         Standard orientation:
 ---------------------------------------------------------------------
 Center     Atomic      Atomic             Coordinates (Angstroms)
 Number     Number       Type             X           Y           Z
 ---------------------------------------------------------------------
      1         25           0        0.000000    0.000000    0.057692
      2          1           0        0.000000    0.000000   -1.442308
 ---------------------------------------------------------------------

 SCF Done:  E(ROHF) =  -104.051034159     A.U. after   22 cycles
 E2 =    -0.6027421947D+00 EUMP2 =    -0.10465377635383D+03
 CCSD(T)
 CCSD(T)= -0.10467428913D+03

 The electronic state is 7-SG.
 Alpha  occ. eigenvalues --   -4.23579  -2.79073  -2.79073  -2.79049  -0.64750
 Alpha  occ. eigenvalues --   -0.63869  -0.63869  -0.63291  -0.63291  -0.41781
 Alpha  occ. eigenvalues --   -0.25317
 Alpha virt. eigenvalues --    0.01275   0.01275   0.02068   0.03017   0.05130
 Alpha virt. eigenvalues --    0.05130   0.05680   0.05823   0.05823   0.06191
 Alpha virt. eigenvalues --    0.06191   0.08697   0.13833   0.14481   0.18016

 Mulliken charges and spin densities:
               1          2
     1  Mn   0.427885   5.946551
     2  H   -0.427885   0.053449
 Sum of Mulliken charges =  -0.00000   6.00000

 Dipole moment (field-independent basis, Debye):
    X=              0.0000    Y=              0.0000    Z=              0.6130  Tot=              0.6130
 Quadrupole moment (field-independent basis, Debye-Ang):
   XX=            -16.0601   YY=            -16.0601   ZZ=            -25.7091
   XY=              0.0000   XZ=              0.0000   YZ=              0.0000

 \\#P ROCCSD(T)=(maxcyc=150, Full, SaveAmplitudes, ReadAmplitudes)/Gen
 4.0510342\PMP2-0=-104.6537764\CCSD=-104.6575098\CCSD(T)=-104.6742891\R
 Normal termination of Gaussian 16 at Mon Feb 26 06:37:15 2018.
