 Gaussian 16, Revision A.03,
 Gaussian 16:  ES64L-G16RevA.03 25-Dec-2016

 ----------------------------------------------------------------------
 #P ROCCSD(T)=(maxcyc=150, Full, SaveAmplitudes, ReadAmplitudes)/Gen 5d
  7f SCF=(maxcycles=300) Integral(NoXCTest) MaxDisk=500GB Pop=Regular P
 seudo=Read Guess=Read IOp(5/15=2)
 ----------------------------------------------------------------------

 ---
 MnO
 ---
 Symbolic Z-matrix:
 Charge =  0 Multiplicity = 6

                         Standard orientation:
 ---------------------------------------------------------------------
 Center     Atomic      Atomic             Coordinates (Angstroms)
 Number     Number       Type             X           Y           Z
 ---------------------------------------------------------------------
      1         25           0        0.000000    0.000000    0.363636
      2          8           0        0.000000    0.000000   -1.136364
 ---------------------------------------------------------------------

 SCF Done:  E(ROHF) =  -119.110420270     A.U. after   44 cycles
 E2 =    -0.9243540353D+00 EUMP2 =    -0.12003477430496D+03
 CCSD(T)
 CCSD(T)= -0.12004900878D+03

 The electronic state is 6-SG.
 Alpha  occ. eigenvalues --   -4.23438  -2.78822  -2.78822  -2.76408  -1.18982
 Alpha  occ. eigenvalues --   -0.68076  -0.68076  -0.63814  -0.63814  -0.53365
 Alpha  occ. eigenvalues --   -0.38967  -0.38967  -0.33388
 Alpha virt. eigenvalues --   -0.00492   0.01969   0.01969   0.03271   0.03887
 Alpha virt. eigenvalues --    0.06867   0.06867   0.08652   0.08652   0.08799
 Alpha virt. eigenvalues --    0.09460   0.09460   0.13188   0.14655   0.23217

 Mulliken charges and spin densities:
               1          2
     1  Mn   1.048355   4.820537
     2  O   -1.048355   0.179463
 Sum of Mulliken charges =  -0.00000   5.00000

 Dipole moment (field-independent basis, Debye):
    X=              0.0000    Y=              0.0000    Z=              6.1555  Tot=              6.1555
 Quadrupole moment (field-independent basis, Debye-Ang):
   XX=            -19.3956   YY=            -19.3956   ZZ=            -22.9273
   XY=              0.0000   XZ=              0.0000   YZ=              0.0000

 \\#P ROCCSD(T)=(maxcyc=150, Full, SaveAmplitudes, ReadAmplitudes)/Gen
 .0243763\CCSD=-120.0066555\CCSD(T)=-120.0490088\RMSD=4.850e-09\PG=C*V
 Normal termination of Gaussian 16 at Wed Mar 14 04:14:20 2018.
