 Gaussian 16, Revision A.03,
 Gaussian 16:  ES64L-G16RevA.03 25-Dec-2016

 ----------------------------------------------------------------------
 #P ROCCSD(T)=(MaxCyc=150, Full)/Gen SCF=(maxcycle=400) Pseudo=Read Int
 egral(NoXCTest) Pop=Regular MaxDisk=500GB
 ----------------------------------------------------------------------

 ---
 FeO
 ---
 Symbolic Z-matrix:
 Charge =  0 Multiplicity = 5

                         Standard orientation:
 ---------------------------------------------------------------------
 Center     Atomic      Atomic             Coordinates (Angstroms)
 Number     Number       Type             X           Y           Z
 ---------------------------------------------------------------------
      1         26           0        0.000000    0.000000    0.423529
      2          8           0        0.000000    0.000000   -1.376471
 ---------------------------------------------------------------------

 SCF Done:  E(ROHF) =  -138.842782759     A.U. after   33 cycles
 E2 =    -0.9796987936D+00 EUMP2 =    -0.13982248155215D+03
 CCSD(T)
 CCSD(T)= -0.13984781377D+03

 Unable to determine electronic state:  partially filled degenerate orbitals.
 Alpha  occ. eigenvalues --   -4.52500  -3.04953  -2.97706  -2.97706  -1.11839
 Alpha  occ. eigenvalues --   -0.71558  -0.71558  -0.69942  -0.68347  -0.63383
 Alpha  occ. eigenvalues --   -0.34821  -0.34821  -0.34202
 Alpha virt. eigenvalues --   -0.05658   0.01573   0.01573   0.01698   0.03998
 Alpha virt. eigenvalues --    0.06790   0.06790   0.08775   0.09416   0.09446
 Alpha virt. eigenvalues --    0.10474   0.10474   0.13497   0.14727   0.24215

 Mulliken charges and spin densities:
               1          2
     1  Fe   1.092481   3.926388
     2  O   -1.092481   0.073612
 Sum of Mulliken charges =  -0.00000   4.00000

 Dipole moment (field-independent basis, Debye):
    X=              0.0000    Y=              0.0000    Z=              9.2242  Tot=              9.2242
 Quadrupole moment (field-independent basis, Debye-Ang):
   XX=            -18.7331   YY=            -18.7331   ZZ=            -23.7810
   XY=              0.0000   XZ=              0.0000   YZ=              0.0000

 \\#P ROCCSD(T)=(MaxCyc=150, Full)/Gen SCF=(maxcycle=400) Pseudo=Read I
 30222\CCSD=-139.8005151\CCSD(T)=-139.8478138\RMSD=7.754e-09\PG=C*V [C*
 Normal termination of Gaussian 16 at Sun Mar 25 12:18:42 2018.
