 Gaussian 16, Revision A.03,
 Gaussian 16:  ES64L-G16RevA.03 25-Dec-2016

 ----------------------------------------------------------------------
 #P ROCCSD(T)=(MaxCyc=150, Full)/Gen SCF=(maxcycle=400, vshift=400) Pse
 udo=Read Integral(NoXCTest) Pop=Regular MaxDisk=500GB IOp(5/15=2)
 ----------------------------------------------------------------------

 ---
 FeO
 ---
 Symbolic Z-matrix:
 Charge =  0 Multiplicity = 5

                         Standard orientation:
 ---------------------------------------------------------------------
 Center     Atomic      Atomic             Coordinates (Angstroms)
 Number     Number       Type             X           Y           Z
 ---------------------------------------------------------------------
      1         26           0        0.000000    0.000000    0.423529
      2          8           0        0.000000    0.000000   -1.376471
 ---------------------------------------------------------------------

 SCF Done:  E(ROHF) =  -138.846134022     A.U. after   68 cycles
 E2 =    -0.1026323495D+01 EUMP2 =    -0.13987245751684D+03
 CCSD(T)
 CCSD(T)= -0.13989534605D+03

 Unable to determine electronic state:  partially filled degenerate orbitals.
 Alpha  occ. eigenvalues --   -4.52487  -3.04930  -2.97686  -2.97685  -1.11785
 Alpha  occ. eigenvalues --   -0.71550  -0.71550  -0.69929  -0.68338  -0.63375
 Alpha  occ. eigenvalues --   -0.34833  -0.34833  -0.34184
 Alpha virt. eigenvalues --   -0.05648   0.01315   0.01315   0.01454   0.03544
 Alpha virt. eigenvalues --    0.05944   0.05945   0.06365   0.06375   0.06670
 Alpha virt. eigenvalues --    0.07552   0.07552   0.11382   0.13404   0.19072

 Mulliken charges and spin densities:
               1          2
     1  Fe   1.086040   3.935866
     2  O   -1.086040   0.064134
 Sum of Mulliken charges =  -0.00000   4.00000

 Dipole moment (field-independent basis, Debye):
    X=              0.0000    Y=              0.0000    Z=              9.2126  Tot=              9.2126
 Quadrupole moment (field-independent basis, Debye-Ang):
   XX=            -18.7302   YY=            -18.7300   ZZ=            -23.7593
   XY=              0.0000   XZ=              0.0000   YZ=              0.0000

 \\#P ROCCSD(T)=(MaxCyc=150, Full)/Gen SCF=(maxcycle=400, vshift=400) P
 8724575\MP4SDQ=-139.8573855\CCSD=-139.8457665\CCSD(T)=-139.895346\RMSD
 Normal termination of Gaussian 16 at Sat Apr 14 22:31:49 2018.
