 Gaussian 16, Revision A.03,
 Gaussian 16:  ES64L-G16RevA.03 25-Dec-2016

 ----------------------------------------------------------------------
 #P ROCCSD(T)=(maxcyc=150, FrzINGC)/Gen 5d 7f SCF=(maxcycles=300) Integ
 ral(NoXCTest, DKHSO) MaxDisk=500GB Pop=Regular IOp(5/15=2) Guess=Read
 ----------------------------------------------------------------------

 ---
 ScH
 ---
 Symbolic Z-matrix:
 Charge =  0 Multiplicity = 1

                         Standard orientation:
 ---------------------------------------------------------------------
 Center     Atomic      Atomic             Coordinates (Angstroms)
 Number     Number       Type             X           Y           Z
 ---------------------------------------------------------------------
      1         21           0        0.000000    0.000000    0.045455
      2          1           0        0.000000    0.000000   -0.954545
 ---------------------------------------------------------------------

 SCF Done:  E(ROHF) =  -763.554299092     A.U. after   10 cycles
 E2 =    -0.4091235821D+00 EUMP2 =    -0.76396342267409D+03
 CCSD(T)
 CCSD(T)= -0.76399792336D+03

 The electronic state is 1-SG.
 Alpha  occ. eigenvalues -- -166.79746 -19.22881 -15.65414 -15.65414 -15.64773
 Alpha  occ. eigenvalues --   -2.59930  -1.66018  -1.55989  -1.55989  -0.47578
 Alpha  occ. eigenvalues --   -0.21296
 Alpha virt. eigenvalues --    0.01230   0.01348   0.01348   0.02136   0.02882
 Alpha virt. eigenvalues --    0.02882   0.02905   0.02908   0.02908   0.04398
 Alpha virt. eigenvalues --    0.04531   0.04531   0.08283   0.08283   0.08451

 Mulliken charges and spin densities:
               1          2
     1  Sc   0.290577   0.000000
     2  H   -0.290577   0.000000
 Sum of Mulliken charges =  -0.00000   0.00000

 Dipole moment (field-independent basis, Debye):
    X=              0.0000    Y=             -0.0000    Z=              1.2207  Tot=              1.2207
 Quadrupole moment (field-independent basis, Debye-Ang):
   XX=            -23.9467   YY=            -23.9467   ZZ=            -22.5110
   XY=             -0.0000   XZ=              0.0000   YZ=              0.0000

  ROCCSD(T)=(maxcyc=150, FrzINGC)/Gen 5d 7f SCF=(maxcycles=300) Integra
 PMP2-0=-763.9634227\MP4SDQ=-763.9816592\CCSD=-763.981688\CCSD(T)=-763.
 Normal termination of Gaussian 16 at Tue Feb 13 17:07:06 2018.
