 Gaussian 16, Revision A.03,
 Gaussian 16:  ES64L-G16RevA.03 25-Dec-2016

 ----------------------------------------------------------------------
 #P ROCCSD(T)=(maxcyc=150, Full, SaveAmplitudes, ReadAmplitudes)/Gen 5d
  7f SCF=(maxcycles=300, VShift=400) Integral(NoXCTest) MaxDisk=500GB P
 op=Full Pseudo=Read Guess=Read
 ----------------------------------------------------------------------

 ---
 MnH
 ---
 Symbolic Z-matrix:
 Charge =  0 Multiplicity = 7

                         Standard orientation:
 ---------------------------------------------------------------------
 Center     Atomic      Atomic             Coordinates (Angstroms)
 Number     Number       Type             X           Y           Z
 ---------------------------------------------------------------------
      1         25           0        0.000000    0.000000    0.061538
      2          1           0        0.000000    0.000000   -1.538462
 ---------------------------------------------------------------------

 SCF Done:  E(ROHF) =  -103.789136753     A.U. after   24 cycles
 E2 =    -0.6045357917D+00 EUMP2 =    -0.10439367254429D+03
 CCSD(T)
 CCSD(T)= -0.10441445295D+03

 The electronic state is 7-SG.
 Alpha  occ. eigenvalues --   -4.14308  -2.76505  -2.76505  -2.76401  -0.64457
 Alpha  occ. eigenvalues --   -0.64236  -0.64236  -0.63587  -0.63587  -0.41435
 Alpha  occ. eigenvalues --   -0.25711
 Alpha virt. eigenvalues --    0.01247   0.01247   0.02113   0.02967   0.05111
 Alpha virt. eigenvalues --    0.05111   0.05664   0.05815   0.05815   0.06195
 Alpha virt. eigenvalues --    0.06195   0.08875   0.13634   0.14265   0.18056

 Mulliken charges and spin densities:
               1          2
     1  Mn   0.364376   5.945604
     2  H   -0.364376   0.054396
 Sum of Mulliken charges =  -0.00000   6.00000

 Dipole moment (field-independent basis, Debye):
    X=              0.0000    Y=              0.0000    Z=              0.9547  Tot=              0.9547
 Quadrupole moment (field-independent basis, Debye-Ang):
   XX=            -16.1107   YY=            -16.1107   ZZ=            -25.9995
   XY=              0.0000   XZ=              0.0000   YZ=              0.0000

 \\#P ROCCSD(T)=(maxcyc=150, Full, SaveAmplitudes, ReadAmplitudes)/Gen
 \PUHF=-103.7891368\PMP2-0=-104.3936725\CCSD=-104.3976349\CCSD(T)=-104.
 Normal termination of Gaussian 16 at Thu Apr 19 10:37:43 2018.
