 Gaussian 16, Revision A.03,
 Gaussian 16:  ES64L-G16RevA.03 25-Dec-2016

 ----------------------------------------------------------------------
 #P ROCCSD(T)=(maxcyc=150, Full, SaveAmplitudes, ReadAmplitudes)/Gen 5d
  7f SCF=(maxcycles=300) Integral(NoXCTest) MaxDisk=500GB Pop=Regular P
 seudo=Read Guess=Read
 ----------------------------------------------------------------------

 ---
 CrH
 ---
 Symbolic Z-matrix:
 Charge =  0 Multiplicity = 6

                         Standard orientation:
 ---------------------------------------------------------------------
 Center     Atomic      Atomic             Coordinates (Angstroms)
 Number     Number       Type             X           Y           Z
 ---------------------------------------------------------------------
      1         24           0        0.000000    0.000000    0.064000
      2          1           0        0.000000    0.000000   -1.536000
 ---------------------------------------------------------------------

 SCF Done:  E(ROHF) =  -86.8751018395     A.U. after   24 cycles
 E2 =    -0.5786918189D+00 EUMP2 =    -0.87453793658407D+02
 CCSD(T)
 CCSD(T)= -0.87498179868D+02

 The electronic state is 6-SG.
 Alpha  occ. eigenvalues --   -3.66188  -2.42614  -2.42614  -2.38125  -0.53343
 Alpha  occ. eigenvalues --   -0.53343  -0.50122  -0.50122  -0.41908  -0.25816
 Alpha virt. eigenvalues --    0.01289   0.01289   0.02025   0.02336   0.04630
 Alpha virt. eigenvalues --    0.05050   0.05050   0.05358   0.05358   0.05656
 Alpha virt. eigenvalues --    0.05656   0.06801   0.09578   0.12491   0.16771

 Mulliken charges and spin densities:
               1          2
     1  Cr   0.350753   4.981576
     2  H   -0.350753   0.018424
 Sum of Mulliken charges =   0.00000   5.00000

 Dipole moment (field-independent basis, Debye):
    X=              0.0000    Y=              0.0000    Z=              1.8822  Tot=              1.8822
 Quadrupole moment (field-independent basis, Debye-Ang):
   XX=            -16.8432   YY=            -16.8432   ZZ=            -23.3739
   XY=              0.0000   XZ=              0.0000   YZ=              0.0000

 \\#P ROCCSD(T)=(maxcyc=150, Full, SaveAmplitudes, ReadAmplitudes)/Gen
 751018\PMP2-0=-87.4537937\CCSD=-87.4793369\CCSD(T)=-87.4981799\RMSD=5.
 Normal termination of Gaussian 16 at Mon Feb 26 06:11:28 2018.
