 Gaussian 16, Revision A.03,
 Gaussian 16:  ES64L-G16RevA.03 25-Dec-2016

 ----------------------------------------------------------------------
 #P ROCCSD(T)=(MaxCyc=150, Full)/Gen SCF=(maxcycle=400) Pseudo=Read Int
 egral(NoXCTest) Pop=Regular MaxDisk=500GB Guess=Read IOp(5/15=2)
 ----------------------------------------------------------------------

 ---
 CuH
 ---
 Symbolic Z-matrix:
 Charge =  0 Multiplicity = 1

                         Standard orientation:
 ---------------------------------------------------------------------
 Center     Atomic      Atomic             Coordinates (Angstroms)
 Number     Number       Type             X           Y           Z
 ---------------------------------------------------------------------
      1         29           0        0.000000    0.000000    0.036667
      2          1           0        0.000000    0.000000   -1.063333
 ---------------------------------------------------------------------

 SCF Done:  E(ROHF) =  -197.045979578     A.U. after    8 cycles
 E2 =    -0.1176113373D+01 EUMP2 =    -0.19822209295139D+03
 CCSD(T)
 CCSD(T)= -0.19813571766D+03

 The electronic state is 1-SG.
 Alpha  occ. eigenvalues --   -5.29516  -3.57324  -3.55116  -3.55116  -0.59415
 Alpha  occ. eigenvalues --   -0.54628  -0.54628  -0.52674  -0.52674  -0.32985
 Alpha virt. eigenvalues --    0.00667   0.02581   0.02581   0.02660   0.04801
 Alpha virt. eigenvalues --    0.07900   0.08478   0.08478   0.11837   0.11837
 Alpha virt. eigenvalues --    0.11974   0.12625   0.12625   0.14906   0.18829

 Mulliken charges and spin densities:
               1          2
     1  Cu   0.339081   0.000000
     2  H   -0.339081   0.000000
 Sum of Mulliken charges =  -0.00000   0.00000

 Dipole moment (field-independent basis, Debye):
    X=              0.0000    Y=              0.0000    Z=              3.1334  Tot=              3.1334
 Quadrupole moment (field-independent basis, Debye-Ang):
   XX=            -14.2071   YY=            -14.2071   ZZ=            -14.3906
   XY=              0.0000   XZ=              0.0000   YZ=              0.0000

 P ROCCSD(T)=(MaxCyc=150, Full)/Gen SCF=(maxcycle=400) Pseudo=Read Inte
 -0=-198.222093\MP4SDQ=-198.1648392\CCSD=-198.0948189\CCSD(T)=-198.1357
 Normal termination of Gaussian 16 at Thu May  3 11:04:35 2018.
