 Gaussian 16, Revision A.03,
 Gaussian 16:  ES64L-G16RevA.03 25-Dec-2016

 ----------------------------------------------------------------------
 #P ROCCSD(T)=(maxcyc=150, Full, SaveAmplitudes, ReadAmplitudes)/Gen 5d
  7f SCF=(maxcycles=300) Integral(NoXCTest) MaxDisk=500GB Pop=Regular P
 seudo=Read Guess=Read
 ----------------------------------------------------------------------

 ---
 TiO
 ---
 Symbolic Z-matrix:
 Charge =  0 Multiplicity = 3

                         Standard orientation:
 ---------------------------------------------------------------------
 Center     Atomic      Atomic             Coordinates (Angstroms)
 Number     Number       Type             X           Y           Z
 ---------------------------------------------------------------------
      1         22           0        0.000000    0.000000    0.480000
      2          8           0        0.000000    0.000000   -1.320000
 ---------------------------------------------------------------------

 SCF Done:  E(ROHF) =  -73.4977896876     A.U. after   21 cycles
 E2 =    -0.7873200380D+00 EUMP2 =    -0.74285109725600D+02
 CCSD(T)
 CCSD(T)= -0.74318354013D+02

 Unable to determine electronic state:  an orbital has unidentified symmetry.
 Alpha  occ. eigenvalues --   -3.09307  -1.94884  -1.94884  -1.90736  -1.13968
 Alpha  occ. eigenvalues --   -0.50190  -0.43332  -0.39493  -0.39493  -0.28799
 Alpha virt. eigenvalues --   -0.00537  -0.00537   0.00712   0.02062   0.03084
 Alpha virt. eigenvalues --    0.03084   0.03583   0.03667   0.03702   0.04317
 Alpha virt. eigenvalues --    0.04317   0.04662   0.07400   0.09941   0.10801

 Mulliken charges and spin densities:
               1          2
     1  Ti   1.039511   1.975829
     2  O   -1.039511   0.024171
 Sum of Mulliken charges =  -0.00000   2.00000

 Dipole moment (field-independent basis, Debye):
    X=              0.0000    Y=              0.0000    Z=              6.0535  Tot=              6.0535
 Quadrupole moment (field-independent basis, Debye-Ang):
   XX=            -21.5509   YY=            -21.5509   ZZ=            -30.4514
   XY=              0.0000   XZ=              0.0000   YZ=              0.0000

 \\#P ROCCSD(T)=(maxcyc=150, Full, SaveAmplitudes, ReadAmplitudes)/Gen
 -0=-74.2851097\CCSD=-74.2643407\CCSD(T)=-74.318354\RMSD=5.861e-09\PG=C
 Normal termination of Gaussian 16 at Mon Mar 12 15:42:39 2018.
