 Gaussian 16, Revision A.03,
 Gaussian 16:  ES64L-G16RevA.03 25-Dec-2016

 ----------------------------------------------------------------------
 #P ROCCSD(T)=(maxcyc=150, Full, SaveAmplitudes, ReadAmplitudes)/Gen 5d
  7f SCF=(maxcycles=300) Integral(NoXCTest, DKHSO) MaxDisk=500GB Pop=Re
 gular Guess=Read
 ----------------------------------------------------------------------

 ---
 TiO
 ---
 Symbolic Z-matrix:
 Charge =  0 Multiplicity = 3

                         Standard orientation:
 ---------------------------------------------------------------------
 Center     Atomic      Atomic             Coordinates (Angstroms)
 Number     Number       Type             X           Y           Z
 ---------------------------------------------------------------------
      1         22           0        0.000000    0.000000    0.346667
      2          8           0        0.000000    0.000000   -0.953333
 ---------------------------------------------------------------------

 SCF Done:  E(ROHF) =  -927.581168377     A.U. after   22 cycles
 E2 =    -0.1198639849D+01 EUMP2 =    -0.92877980822616D+03
 CCSD(T)
 CCSD(T)= -0.92879337194D+03

 Unable to determine electronic state:  an orbital has unidentified symmetry.
 Alpha  occ. eigenvalues -- -184.33753 -21.59239 -20.56757 -17.75966 -17.75966
 Alpha  occ. eigenvalues --  -17.75891  -2.91859  -1.94604  -1.80938  -1.80938
 Alpha  occ. eigenvalues --   -1.13208  -0.59104  -0.59104  -0.52437  -0.35343
 Alpha  occ. eigenvalues --   -0.21694
 Alpha virt. eigenvalues --    0.01142   0.01142   0.02115   0.02334   0.03788
 Alpha virt. eigenvalues --    0.03788   0.03806   0.03845   0.03860   0.04641
 Alpha virt. eigenvalues --    0.04641   0.07230   0.10381   0.10664   0.11232

 Mulliken charges and spin densities:
               1          2
     1  Ti   0.830516   1.979303
     2  O   -0.830516   0.020697
 Sum of Mulliken charges =  -0.00000   2.00000

 Dipole moment (field-independent basis, Debye):
    X=              0.0000    Y=             -0.0000    Z=              0.6487  Tot=              0.6487
 Quadrupole moment (field-independent basis, Debye-Ang):
   XX=            -22.4344   YY=            -22.4344   ZZ=            -27.4919
   XY=             -0.0000   XZ=              0.0000   YZ=             -0.0000

 \\#P ROCCSD(T)=(maxcyc=150, Full, SaveAmplitudes, ReadAmplitudes)/Gen
 =-928.7798082\CCSD=-928.7559926\CCSD(T)=-928.7933719\RMSD=1.690e-09\PG
 Normal termination of Gaussian 16 at Wed Mar  7 01:39:56 2018.
