 Gaussian 16, Revision A.03,
 Gaussian 16:  ES64L-G16RevA.03 25-Dec-2016

 ----------------------------------------------------------------------
 #P ROHF/Gen 5d 7f SCF=(maxcycles=300) Integral(NoXCTest, DKHSO) MaxDis
 k=500GB Pop=Regular
 ----------------------------------------------------------------------

 ---
 MnH
 ---
 Symbolic Z-matrix:
 Charge =  0 Multiplicity = 7

                         Standard orientation:
 ---------------------------------------------------------------------
 Center     Atomic      Atomic             Coordinates (Angstroms)
 Number     Number       Type             X           Y           Z
 ---------------------------------------------------------------------
      1         25           0        0.000000    0.000000    0.065385
      2          1           0        0.000000    0.000000   -1.634615
 ---------------------------------------------------------------------

 SCF Done:  E(ROHF) =  -1157.94530060     A.U. after   24 cycles

 The electronic state is 7-SG.
 Alpha  occ. eigenvalues -- -242.49754 -29.51744 -24.87231 -24.87231 -24.87143
 Alpha  occ. eigenvalues --   -3.82416  -2.42293  -2.42293  -2.41679  -0.40194
 Alpha  occ. eigenvalues --   -0.09824  -0.09824  -0.09316  -0.09267  -0.09267
 Alpha  occ. eigenvalues --   -0.05647
 Alpha virt. eigenvalues --    0.01854   0.01854   0.02416   0.03231   0.06677
 Alpha virt. eigenvalues --    0.06677   0.08572   0.08572   0.08632   0.09086
 Alpha virt. eigenvalues --    0.09086   0.09899   0.14675   0.20277   0.23922

 Mulliken charges and spin densities:
               1          2
     1  Mn   0.433831   5.959144
     2  H   -0.433831   0.040856
 Sum of Mulliken charges =   0.00000   6.00000

 Dipole moment (field-independent basis, Debye):
    X=              0.0000    Y=              0.0000    Z=              1.2887  Tot=              1.2887
 Quadrupole moment (field-independent basis, Debye-Ang):
   XX=            -16.4696   YY=            -16.4696   ZZ=            -26.6511
   XY=              0.0000   XZ=              0.0000   YZ=              0.0000

 Normal termination of Gaussian 16 at Sun Feb 25 17:10:57 2018.
