 Gaussian 16, Revision A.03,
 Gaussian 16:  ES64L-G16RevA.03 25-Dec-2016

 ----------------------------------------------------------------------
 #P ROCCSD(T)=(maxcyc=150, Window=(6,0), SaveAmplitudes, ReadAmplitudes
 )/Gen 5d 7f SCF=(maxcycles=300) Integral(NoXCTest, DKHSO) MaxDisk=500G
 B Pop=Regular Guess=Read IOp(5/15=2)
 ----------------------------------------------------------------------

 ---
 MnH
 ---
 Symbolic Z-matrix:
 Charge =  0 Multiplicity = 7

                         Standard orientation:
 ---------------------------------------------------------------------
 Center     Atomic      Atomic             Coordinates (Angstroms)
 Number     Number       Type             X           Y           Z
 ---------------------------------------------------------------------
      1         25           0        0.000000    0.000000    0.065385
      2          1           0        0.000000    0.000000   -1.634615
 ---------------------------------------------------------------------

 SCF Done:  E(ROHF) =  -1157.94530060     A.U. after    1 cycles
 E2 =    -0.5568775707D+00 EUMP2 =    -0.11585021781672D+04
 CCSD(T)
 CCSD(T)= -0.11585179670D+04

 The electronic state is 7-SG.
 Alpha  occ. eigenvalues -- -242.50013 -29.60379 -24.95836 -24.95836 -24.95748
 Alpha  occ. eigenvalues --   -4.09303  -2.74599  -2.74599  -2.74416  -0.64209
 Alpha  occ. eigenvalues --   -0.64209  -0.63972  -0.63482  -0.63482  -0.40820
 Alpha  occ. eigenvalues --   -0.26088
 Alpha virt. eigenvalues --    0.01247   0.01247   0.02327   0.03134   0.05726
 Alpha virt. eigenvalues --    0.05726   0.08300   0.08470   0.08470   0.08942
 Alpha virt. eigenvalues --    0.08942   0.09774   0.13917   0.19718   0.22681

 Mulliken charges and spin densities:
               1          2
     1  Mn   0.433831   5.959144
     2  H   -0.433831   0.040856
 Sum of Mulliken charges =   0.00000   6.00000

 Dipole moment (field-independent basis, Debye):
    X=              0.0000    Y=              0.0000    Z=              1.2887  Tot=              1.2887
 Quadrupole moment (field-independent basis, Debye-Ang):
   XX=            -16.4696   YY=            -16.4696   ZZ=            -26.6511
   XY=              0.0000   XZ=              0.0000   YZ=              0.0000

 1\1\GINC-C504-081\SP\ROCCSD(T)-RW\Gen\H1Mn1(7)\AANNABE\26-Feb-2018\0\\
 #P ROCCSD(T)=(maxcyc=150, Window=(6,0), SaveAmplitudes, ReadAmplitudes
 )/Gen 5d 7f SCF=(maxcycles=300) Integral(NoXCTest, DKHSO) MaxDisk=500G
 B Pop=Regular Guess=Read IOp(5/15=2)\\MnH\\0,7\Mn,0,0.,0.,0.\H,0,0.,0.
 ,1.7\\Version=ES64L-G16RevA.03\State=7-SG\HF=-1157.9453006\MP2=-1158.5
 021782\MP3=-1158.4960857\PUHF=-1157.9453006\PMP2-0=-1158.5021782\MP4SD
 Q=-1158.503324\CCSD=-1158.5033992\CCSD(T)=-1158.517967\RMSD=2.912e-09\
 PG=C*V [C*(H1Mn1)]\\@

 Normal termination of Gaussian 16 at Mon Feb 26 01:36:46 2018.
