 Gaussian 16, Revision A.03,
 Gaussian 16:  ES64L-G16RevA.03 25-Dec-2016

 ----------------------------------------------------------------------
 #P ROCCSD(T)=(MaxCyc=150, Full)/Gen SCF=(maxcycle=400) Pseudo=Read Int
 egral(NoXCTest) Pop=Regular MaxDisk=500GB Guess=Read IOp(5/15=2)
 ----------------------------------------------------------------------

 ---
 NiO
 ---
 Symbolic Z-matrix:
 Charge =  0 Multiplicity = 3

                         Standard orientation:
 ---------------------------------------------------------------------
 Center     Atomic      Atomic             Coordinates (Angstroms)
 Number     Number       Type             X           Y           Z
 ---------------------------------------------------------------------
      1         28           0        0.000000    0.000000    0.311111
      2          8           0        0.000000    0.000000   -1.088889
 ---------------------------------------------------------------------

 SCF Done:  E(ROHF) =  -185.580960230     A.U. after   20 cycles
 E2 =    -0.1272562541D+01 EUMP2 =    -0.18685352277108D+03
 CCSD(T)
 CCSD(T)= -0.18684812370D+03

 The electronic state is 3-SG.
 Alpha  occ. eigenvalues --   -5.16970  -3.54928  -3.45172  -3.45172  -1.24560
 Alpha  occ. eigenvalues --   -0.80500  -0.80500  -0.71304  -0.68935  -0.68935
 Alpha  occ. eigenvalues --   -0.41675  -0.41675  -0.37203
 Alpha virt. eigenvalues --   -0.03114   0.02256   0.02256   0.02695   0.03787
 Alpha virt. eigenvalues --    0.07365   0.07365   0.07686   0.08191   0.08191
 Alpha virt. eigenvalues --    0.09571   0.09571   0.12926   0.15640   0.22616

 Mulliken charges and spin densities:
               1          2
     1  Ni   0.898092   1.780417
     2  O   -0.898092   0.219583
 Sum of Mulliken charges =  -0.00000   2.00000

 Dipole moment (field-independent basis, Debye):
    X=              0.0000    Y=              0.0000    Z=              6.4517  Tot=              6.4517
 Quadrupole moment (field-independent basis, Debye-Ang):
   XX=            -18.1136   YY=            -18.1136   ZZ=            -19.3497
   XY=              0.0000   XZ=              0.0000   YZ=              0.0000

 \\#P ROCCSD(T)=(MaxCyc=150, Full)/Gen SCF=(maxcycle=400) Pseudo=Read I
 PMP2-0=-186.8535228\MP4SDQ=-186.8198041\CCSD=-186.7903929\CCSD(T)=-186
 Normal termination of Gaussian 16 at Tue Mar 27 03:11:31 2018.
