 Gaussian 16, Revision A.03,
 Gaussian 16:  ES64L-G16RevA.03 25-Dec-2016

 ----------------------------------------------------------------------
 #P ROCCSD(T)=(MaxCyc=150, Full)/Gen SCF=(maxcycle=400) Pseudo=Read Int
 egral(NoXCTest) Pop=Regular MaxDisk=500GB Guess=Read IOp(5/15=2)
 ----------------------------------------------------------------------

 ---
 NiO
 ---
 Symbolic Z-matrix:
 Charge =  0 Multiplicity = 3

                         Standard orientation:
 ---------------------------------------------------------------------
 Center     Atomic      Atomic             Coordinates (Angstroms)
 Number     Number       Type             X           Y           Z
 ---------------------------------------------------------------------
      1         28           0        0.000000    0.000000    0.311111
      2          8           0        0.000000    0.000000   -1.088889
 ---------------------------------------------------------------------

 SCF Done:  E(ROHF) =  -185.576983412     A.U. after   22 cycles
 E2 =    -0.1214885324D+01 EUMP2 =    -0.18679186873596D+03
 CCSD(T)
 CCSD(T)= -0.18678887559D+03

 The electronic state is 3-SG.
 Alpha  occ. eigenvalues --   -5.16976  -3.54951  -3.45185  -3.45185  -1.24623
 Alpha  occ. eigenvalues --   -0.80502  -0.80502  -0.71314  -0.68935  -0.68935
 Alpha  occ. eigenvalues --   -0.41670  -0.41670  -0.37212
 Alpha virt. eigenvalues --   -0.03118   0.02631   0.02631   0.03013   0.04160
 Alpha virt. eigenvalues --    0.09007   0.09007   0.11049   0.12525   0.12525
 Alpha virt. eigenvalues --    0.13200   0.13200   0.15280   0.17044   0.26351

 Mulliken charges and spin densities:
               1          2
     1  Ni   1.084344   1.774900
     2  O   -1.084344   0.225100
 Sum of Mulliken charges =  -0.00000   2.00000

 Dipole moment (field-independent basis, Debye):
    X=              0.0000    Y=              0.0000    Z=              6.4640  Tot=              6.4640
 Quadrupole moment (field-independent basis, Debye-Ang):
   XX=            -18.1205   YY=            -18.1205   ZZ=            -19.3642
   XY=              0.0000   XZ=              0.0000   YZ=              0.0000

 \\#P ROCCSD(T)=(MaxCyc=150, Full)/Gen SCF=(maxcycle=400) Pseudo=Read I
 PMP2-0=-186.7918687\MP4SDQ=-186.7639173\CCSD=-186.7337409\CCSD(T)=-186
 Normal termination of Gaussian 16 at Tue Mar 27 00:44:16 2018.
