 Gaussian 16, Revision A.03,
 Gaussian 16:  ES64L-G16RevA.03 25-Dec-2016

 ----------------------------------------------------------------------
 #P ROCCSD(T)=(maxcyc=150, Full, SaveAmplitudes, ReadAmplitudes)/Gen 5d
  7f SCF=(maxcycles=300) Integral(NoXCTest) MaxDisk=500GB Pop=Regular P
 seudo=Read Guess=Read
 ----------------------------------------------------------------------

 ---
 CrO
 ---
 Symbolic Z-matrix:
 Charge =  0 Multiplicity = 5

                         Standard orientation:
 ---------------------------------------------------------------------
 Center     Atomic      Atomic             Coordinates (Angstroms)
 Number     Number       Type             X           Y           Z
 ---------------------------------------------------------------------
      1         24           0        0.000000    0.000000    0.425000
      2          8           0        0.000000    0.000000   -1.275000
 ---------------------------------------------------------------------

 SCF Done:  E(ROHF) =  -101.838472322     A.U. after   27 cycles
 E2 =    -0.8992799662D+00 EUMP2 =    -0.10273775228780D+03
 CCSD(T)
 CCSD(T)= -0.10277954957D+03

 Unable to determine electronic state:  an orbital has unidentified symmetry.
 Alpha  occ. eigenvalues --   -3.76109  -2.50867  -2.46219  -2.45032  -1.11168
 Alpha  occ. eigenvalues --   -0.56130  -0.55958  -0.54237  -0.49693  -0.36715
 Alpha  occ. eigenvalues --   -0.33947  -0.32771
 Alpha virt. eigenvalues --   -0.03380   0.00776   0.01374   0.01745   0.03130
 Alpha virt. eigenvalues --    0.04596   0.05253   0.05254   0.05680   0.05973
 Alpha virt. eigenvalues --    0.06093   0.06644   0.11185   0.11488   0.13601

 Mulliken charges and spin densities:
               1          2
     1  Cr   1.124273   3.925999
     2  O   -1.124273   0.074001
 Sum of Mulliken charges =  -0.00000   4.00000

 Dipole moment (field-independent basis, Debye):
    X=              0.0000    Y=              0.0000    Z=              8.8540  Tot=              8.8540
 Quadrupole moment (field-independent basis, Debye-Ang):
   XX=            -19.7766   YY=            -18.7521   ZZ=            -23.1888
   XY=              0.0000   XZ=              0.0000   YZ=              0.0000

 \\#P ROCCSD(T)=(maxcyc=150, Full, SaveAmplitudes, ReadAmplitudes)/Gen
 MP2-0=-102.7377523\CCSD=-102.727476\CCSD(T)=-102.7795496\RMSD=5.239e-0
 Normal termination of Gaussian 16 at Tue Mar 13 08:33:40 2018.
