 Gaussian 16, Revision A.03,
 Gaussian 16:  ES64L-G16RevA.03 25-Dec-2016

 ----------------------------------------------------------------------
 #P ROCCSD(T)=(MaxCyc=150, FrzINGC)/Gen SCF=(maxcycle=400) Integral(DKH
 SO, NoXCTest) Pop=Regular MaxDisk=500GB Guess=Read
 ----------------------------------------------------------------------

 --
 Cu
 --
 Symbolic Z-matrix:
 Charge =  0 Multiplicity = 2

                         Standard orientation:
 ---------------------------------------------------------------------
 Center     Atomic      Atomic             Coordinates (Angstroms)
 Number     Number       Type             X           Y           Z
 ---------------------------------------------------------------------
      1         29           0        0.000000    0.000000    0.000000
 ---------------------------------------------------------------------

 SCF Done:  E(ROHF) =  -1653.16128779     A.U. after   11 cycles
 E2 =    -0.1088354681D+01 EUMP2 =    -0.16542496424664D+04
 CCSD(T)
 CCSD(T)= -0.16541514301D+04

 Unable to determine electronic state:  an orbital has unidentified symmetry.
 Alpha  occ. eigenvalues -- -332.48869 -41.65890 -35.79830 -35.79830 -35.79830
 Alpha  occ. eigenvalues --   -5.15880  -3.36332  -3.36332  -3.36332  -0.48327
 Alpha  occ. eigenvalues --   -0.48327  -0.48327  -0.48327  -0.48327  -0.24467
 Alpha virt. eigenvalues --    0.02299   0.02299   0.02299   0.03410   0.07814
 Alpha virt. eigenvalues --    0.07814   0.07814   0.13690   0.13690   0.13690
 Alpha virt. eigenvalues --    0.13690   0.13690   0.18287   0.25991   0.25991

 Mulliken charges and spin densities:
               1          2
     1  Cu  -0.000000   1.000000
 Sum of Mulliken charges =  -0.00000   1.00000

 Dipole moment (field-independent basis, Debye):
    X=              0.0000    Y=             -0.0000    Z=             -0.0000  Tot=              0.0000
 Quadrupole moment (field-independent basis, Debye-Ang):
   XX=            -14.2389   YY=            -14.2389   ZZ=            -14.2389
   XY=              0.0000   XZ=             -0.0000   YZ=              0.0000

 P ROCCSD(T)=(MaxCyc=150, FrzINGC)/Gen SCF=(maxcycle=400) Integral(DKHS
 76\CCSD=-1654.1167538\CCSD(T)=-1654.1514301\RMSD=2.354e-09\PG=OH [O(Cu
 Normal termination of Gaussian 16 at Tue Mar 27 23:45:13 2018.
