 Gaussian 16, Revision A.03,
 Gaussian 16:  ES64L-G16RevA.03 25-Dec-2016

 ----------------------------------------------------------------------
 #P ROCCSD(T)=(MaxCyc=150, FrzINGC)/Gen SCF=(maxcycle=400) Integral(DKH
 SO, NoXCTest) Pop=Regular MaxDisk=500GB Guess=Read
 ----------------------------------------------------------------------

 --
 Cu
 --
 Symbolic Z-matrix:
 Charge =  0 Multiplicity = 2

                         Standard orientation:
 ---------------------------------------------------------------------
 Center     Atomic      Atomic             Coordinates (Angstroms)
 Number     Number       Type             X           Y           Z
 ---------------------------------------------------------------------
      1         29           0        0.000000    0.000000    0.000000
 ---------------------------------------------------------------------

 SCF Done:  E(ROHF) =  -1653.15919722     A.U. after    1 cycles
 E2 =    -0.1038658850D+01 EUMP2 =    -0.16541978560737D+04
 CCSD(T)
 CCSD(T)= -0.16541002435D+04

 Unable to determine electronic state:  an orbital has unidentified symmetry.
 Alpha  occ. eigenvalues -- -332.48878 -41.65922 -35.79865 -35.79865 -35.79865
 Alpha  occ. eigenvalues --   -5.15899  -3.36352  -3.36352  -3.36352  -0.48330
 Alpha  occ. eigenvalues --   -0.48330  -0.48330  -0.48330  -0.48330  -0.24477
 Alpha virt. eigenvalues --    0.02475   0.02475   0.02475   0.03532   0.08996
 Alpha virt. eigenvalues --    0.08996   0.08996   0.18779   0.19895   0.19895
 Alpha virt. eigenvalues --    0.19895   0.19895   0.19895   0.33081   0.33081

 Mulliken charges and spin densities:
               1          2
     1  Cu   0.000000   1.000000
 Sum of Mulliken charges =   0.00000   1.00000

 Dipole moment (field-independent basis, Debye):
    X=              0.0000    Y=              0.0000    Z=              0.0000  Tot=              0.0000
 Quadrupole moment (field-independent basis, Debye-Ang):
   XX=            -14.2394   YY=            -14.2394   ZZ=            -14.2394
   XY=              0.0000   XZ=             -0.0000   YZ=              0.0000

 P ROCCSD(T)=(MaxCyc=150, FrzINGC)/Gen SCF=(maxcycle=400) Integral(DKHS
 6\CCSD=-1654.0675774\CCSD(T)=-1654.1002435\RMSD=2.458e-09\PG=OH [O(Cu1
 Normal termination of Gaussian 16 at Tue Mar 27 23:18:06 2018.
