 Gaussian 16, Revision A.03,
 Gaussian 16:  ES64L-G16RevA.03 25-Dec-2016

 ----------------------------------------------------------------------
 #P ROCCSD(T)=(maxcyc=150, Full, SaveAmplitudes, ReadAmplitudes)/Gen 5d
  7f SCF=(maxcycles=300) Integral(NoXCTest) MaxDisk=500GB Pop=Regular P
 seudo=Read Guess=Read
 ----------------------------------------------------------------------

 ---
 MnO
 ---
 Symbolic Z-matrix:
 Charge =  0 Multiplicity = 6

                         Standard orientation:
 ---------------------------------------------------------------------
 Center     Atomic      Atomic             Coordinates (Angstroms)
 Number     Number       Type             X           Y           Z
 ---------------------------------------------------------------------
      1         25           0        0.000000    0.000000    0.412121
      2          8           0        0.000000    0.000000   -1.287879
 ---------------------------------------------------------------------

 SCF Done:  E(ROHF) =  -119.188691760     A.U. after   22 cycles
 E2 =    -0.9343555761D+00 EUMP2 =    -0.12012304733576D+03
 CCSD(T)
 CCSD(T)= -0.12015153574D+03

 The electronic state is 6-SG.
 Alpha  occ. eigenvalues --   -4.15748  -2.79897  -2.79897  -2.79266  -1.12025
 Alpha  occ. eigenvalues --   -0.64408  -0.64408  -0.63634  -0.63634  -0.59513
 Alpha  occ. eigenvalues --   -0.33911  -0.33905  -0.33905
 Alpha virt. eigenvalues --   -0.04609   0.01337   0.01337   0.01596   0.03379
 Alpha virt. eigenvalues --    0.05761   0.05761   0.05864   0.05864   0.06358
 Alpha virt. eigenvalues --    0.07067   0.07067   0.11366   0.12672   0.17845

 Mulliken charges and spin densities:
               1          2
     1  Mn   1.166304   4.903735
     2  O   -1.166304   0.096265
 Sum of Mulliken charges =  -0.00000   5.00000

 Dipole moment (field-independent basis, Debye):
    X=              0.0000    Y=              0.0000    Z=              9.1016  Tot=              9.1016
 Quadrupole moment (field-independent basis, Debye-Ang):
   XX=            -18.8591   YY=            -18.8591   ZZ=            -23.8045
   XY=              0.0000   XZ=              0.0000   YZ=              0.0000

 \\#P ROCCSD(T)=(maxcyc=150, Full, SaveAmplitudes, ReadAmplitudes)/Gen
 9.1886918\PMP2-0=-120.1230473\CCSD=-120.108283\CCSD(T)=-120.1515357\RM
 Normal termination of Gaussian 16 at Sat Mar 10 09:37:51 2018.
