 Gaussian 16, Revision A.03,
 Gaussian 16:  ES64L-G16RevA.03 25-Dec-2016

 ----------------------------------------------------------------------
 #P ROCCSD(T)=(MaxCyc=150, Full)/Gen SCF=(maxcycle=400, vshift=200) Pse
 udo=Read Integral(NoXCTest) Pop=Regular MaxDisk=500GB Guess=Read IOp(5
 /15=2)
 ----------------------------------------------------------------------

 ---
 ZnH
 ---
 Symbolic Z-matrix:
 Charge =  0 Multiplicity = 2

                         Standard orientation:
 ---------------------------------------------------------------------
 Center     Atomic      Atomic             Coordinates (Angstroms)
 Number     Number       Type             X           Y           Z
 ---------------------------------------------------------------------
      1         30           0        0.000000    0.000000    0.035484
      2          1           0        0.000000    0.000000   -1.064516
 ---------------------------------------------------------------------

 SCF Done:  E(ROHF) =  -226.380387632     A.U. after   27 cycles
 E2 =    -0.1134710466D+01 EUMP2 =    -0.22751509809765D+03
 CCSD(T)
 CCSD(T)= -0.22745431910D+03

 The electronic state is 2-SG.
 Alpha  occ. eigenvalues --   -5.92528  -4.00508  -3.99045  -3.99045  -0.86144
 Alpha  occ. eigenvalues --   -0.82204  -0.82204  -0.81713  -0.81713  -0.49273
 Alpha  occ. eigenvalues --   -0.26246
 Alpha virt. eigenvalues --    0.01976   0.01976   0.02021   0.03409   0.06389
 Alpha virt. eigenvalues --    0.06389   0.06996   0.11962   0.13859   0.15259
 Alpha virt. eigenvalues --    0.15259   0.15551   0.15551   0.19349   0.20183

 Mulliken charges and spin densities:
               1          2
     1  Zn   0.363931   0.958745
     2  H   -0.363931   0.041255
 Sum of Mulliken charges =  -0.00000   1.00000

 Dipole moment (field-independent basis, Debye):
    X=              0.0000    Y=              0.0000    Z=             -0.4605  Tot=              0.4605
 Quadrupole moment (field-independent basis, Debye-Ang):
   XX=            -14.4017   YY=            -14.4017   ZZ=            -20.4685
   XY=              0.0000   XZ=              0.0000   YZ=              0.0000

 \\#P ROCCSD(T)=(MaxCyc=150, Full)/Gen SCF=(maxcycle=400, vshift=200) P
 Normal termination of Gaussian 16 at Mon Apr 30 13:17:04 2018.
