 Gaussian 16, Revision A.03,
 Gaussian 16:  ES64L-G16RevA.03 25-Dec-2016

 ----------------------------------------------------------------------
 #P ROCCSD(T)=(MaxCyc=150, Full)/Gen SCF=(maxcycle=400, vshift=200) Pse
 udo=Read Integral(NoXCTest) Pop=Regular MaxDisk=500GB Guess=Read IOp(5
 /15=2)
 ----------------------------------------------------------------------

 ---
 ZnH
 ---
 Symbolic Z-matrix:
 Charge =  0 Multiplicity = 2

                         Standard orientation:
 ---------------------------------------------------------------------
 Center     Atomic      Atomic             Coordinates (Angstroms)
 Number     Number       Type             X           Y           Z
 ---------------------------------------------------------------------
      1         30           0        0.000000    0.000000    0.035484
      2          1           0        0.000000    0.000000   -1.064516
 ---------------------------------------------------------------------

 SCF Done:  E(ROHF) =  -226.380241678     A.U. after   22 cycles
 E2 =    -0.1108207152D+01 EUMP2 =    -0.22748844882968D+03
 CCSD(T)
 CCSD(T)= -0.22742967420D+03

 The electronic state is 2-SG.
 Alpha  occ. eigenvalues --   -5.92528  -4.00508  -3.99046  -3.99046  -0.86146
 Alpha  occ. eigenvalues --   -0.82204  -0.82204  -0.81715  -0.81715  -0.49272
 Alpha  occ. eigenvalues --   -0.26245
 Alpha virt. eigenvalues --    0.02041   0.02041   0.02295   0.03863   0.06818
 Alpha virt. eigenvalues --    0.06818   0.08075   0.14769   0.17643   0.17744
 Alpha virt. eigenvalues --    0.17744   0.18242   0.18242   0.22117   0.22726

 Mulliken charges and spin densities:
               1          2
     1  Zn   0.237926   0.944542
     2  H   -0.237926   0.055458
 Sum of Mulliken charges =  -0.00000   1.00000

 Dipole moment (field-independent basis, Debye):
    X=              0.0000    Y=              0.0000    Z=             -0.4597  Tot=              0.4597
 Quadrupole moment (field-independent basis, Debye-Ang):
   XX=            -14.4043   YY=            -14.4043   ZZ=            -20.4669
   XY=              0.0000   XZ=              0.0000   YZ=              0.0000

 \\#P ROCCSD(T)=(MaxCyc=150, Full)/Gen SCF=(maxcycle=400, vshift=200) P
 CCSD(T)=-227.4296742\RMSD=6.708e-09\PG=C*V [C*(H1Zn1)]\\@
 Normal termination of Gaussian 16 at Sun Apr 22 04:47:26 2018.
