 Gaussian 16, Revision A.03,
 Gaussian 16:  ES64L-G16RevA.03 25-Dec-2016

 ----------------------------------------------------------------------
 #P ROCCSD(T)=(MaxCyc=150, Full)/Gen SCF=(maxcycle=400, vshift=200) Pse
 udo=Read Integral(NoXCTest) Pop=Regular MaxDisk=500GB Guess=Read IOp(5
 /15=2)
 ----------------------------------------------------------------------

 ---
 ZnH
 ---
 Symbolic Z-matrix:
 Charge =  0 Multiplicity = 2

                         Standard orientation:
 ---------------------------------------------------------------------
 Center     Atomic      Atomic             Coordinates (Angstroms)
 Number     Number       Type             X           Y           Z
 ---------------------------------------------------------------------
      1         30           0        0.000000    0.000000    0.035484
      2          1           0        0.000000    0.000000   -1.064516
 ---------------------------------------------------------------------

 SCF Done:  E(ROHF) =  -226.378882779     A.U. after   23 cycles
 E2 =    -0.1053604422D+01 EUMP2 =    -0.22743248720034D+03
 CCSD(T)
 CCSD(T)= -0.22737464357D+03

 The electronic state is 2-SG.
 Alpha  occ. eigenvalues --   -5.92536  -4.00521  -3.99061  -3.99061  -0.86147
 Alpha  occ. eigenvalues --   -0.82206  -0.82206  -0.81720  -0.81720  -0.49276
 Alpha  occ. eigenvalues --   -0.26244
 Alpha virt. eigenvalues --    0.02168   0.02168   0.02480   0.04197   0.07761
 Alpha virt. eigenvalues --    0.07761   0.08973   0.16337   0.19231   0.24358
 Alpha virt. eigenvalues --    0.24358   0.25165   0.25165   0.27252   0.28025

 Mulliken charges and spin densities:
               1          2
     1  Zn   0.298012   0.957384
     2  H   -0.298012   0.042616
 Sum of Mulliken charges =  -0.00000   1.00000

 Dipole moment (field-independent basis, Debye):
    X=              0.0000    Y=              0.0000    Z=             -0.4567  Tot=              0.4567
 Quadrupole moment (field-independent basis, Debye-Ang):
   XX=            -14.4110   YY=            -14.4110   ZZ=            -20.4564
   XY=              0.0000   XZ=              0.0000   YZ=              0.0000

 \\#P ROCCSD(T)=(MaxCyc=150, Full)/Gen SCF=(maxcycle=400, vshift=200) P
 Normal termination of Gaussian 16 at Sun Apr 22 03:55:19 2018.
