 Gaussian 16, Revision A.03,
 Gaussian 16:  ES64L-G16RevA.03 25-Dec-2016

 ----------------------------------------------------------------------
 #P ROCCSD(T)=(maxcyc=150, Full, SaveAmplitudes, ReadAmplitudes)/Gen 5d
  7f SCF=(maxcycles=300) Integral(NoXCTest) MaxDisk=500GB Pop=Regular P
 seudo=Read Guess=Read IOp(5/15=2)
 ----------------------------------------------------------------------

 ---
 CrO
 ---
 Symbolic Z-matrix:
 Charge =  0 Multiplicity = 5

                         Standard orientation:
 ---------------------------------------------------------------------
 Center     Atomic      Atomic             Coordinates (Angstroms)
 Number     Number       Type             X           Y           Z
 ---------------------------------------------------------------------
      1         24           0        0.000000    0.000000    0.400000
      2          8           0        0.000000    0.000000   -1.200000
 ---------------------------------------------------------------------

 SCF Done:  E(ROHF) =  -101.820983862     A.U. after    1 cycles
 E2 =    -0.8764770626D+00 EUMP2 =    -0.10269746092425D+03
 CCSD(T)
 CCSD(T)= -0.10272465142D+03

 Unable to determine electronic state:  an orbital has unidentified symmetry.
 Alpha  occ. eigenvalues --   -3.76515  -2.53067  -2.49140  -2.45846  -1.17913
 Alpha  occ. eigenvalues --   -0.61755  -0.58286  -0.57038  -0.48064  -0.43195
 Alpha  occ. eigenvalues --   -0.38660  -0.31746
 Alpha virt. eigenvalues --   -0.00188   0.00561   0.01685   0.03171   0.03891
 Alpha virt. eigenvalues --    0.04485   0.06077   0.07571   0.07586   0.08059
 Alpha virt. eigenvalues --    0.08078   0.08461   0.13146   0.13445   0.15861

 Mulliken charges and spin densities:
               1          2
     1  Cr   1.074691   3.858768
     2  O   -1.074691   0.141232
 Sum of Mulliken charges =   0.00000   4.00000

 Dipole moment (field-independent basis, Debye):
    X=              0.0000    Y=              0.0000    Z=              6.1114  Tot=              6.1114
 Quadrupole moment (field-independent basis, Debye-Ang):
   XX=            -20.6865   YY=            -19.5958   ZZ=            -24.0222
   XY=              0.0000   XZ=              0.0000   YZ=              0.0000

 \\#P ROCCSD(T)=(maxcyc=150, Full, SaveAmplitudes, ReadAmplitudes)/Gen
 D=-102.6746448\CCSD(T)=-102.7246514\RMSD=4.586e-09\PG=C*V [C*(O1Cr1)]\
 Normal termination of Gaussian 16 at Fri Mar  9 16:18:05 2018.
