 Gaussian 16, Revision A.03,
 Gaussian 16:  ES64L-G16RevA.03 25-Dec-2016

 ----------------------------------------------------------------------
 #P ROCCSD(T)=(maxcyc=150, Full, SaveAmplitudes, ReadAmplitudes)/Gen 5d
  7f SCF=(maxcycles=300, VShift=400) Integral(NoXCTest) MaxDisk=500GB P
 op=Full Pseudo=Read Guess=Read IOp(5/15=2)
 ----------------------------------------------------------------------

 ---
 CrO
 ---
 Symbolic Z-matrix:
 Charge =  0 Multiplicity = 5

                         Standard orientation:
 ---------------------------------------------------------------------
 Center     Atomic      Atomic             Coordinates (Angstroms)
 Number     Number       Type             X           Y           Z
 ---------------------------------------------------------------------
      1         24           0        0.000000    0.000000    0.300000
      2          8           0        0.000000    0.000000   -0.900000
 ---------------------------------------------------------------------

 SCF Done:  E(ROHF) =  -101.881604531     A.U. after   55 cycles
 E2 =    -0.8868082662D+00 EUMP2 =    -0.10276841279676D+03
 CCSD(T)
 CCSD(T)= -0.10277579256D+03

 Unable to determine electronic state:  an orbital has unidentified symmetry.
 Alpha  occ. eigenvalues --   -3.75075  -2.48438  -2.43855  -2.39831  -1.26049
 Alpha  occ. eigenvalues --   -0.75017  -0.68258  -0.65024  -0.50823  -0.50712
 Alpha  occ. eigenvalues --   -0.31212  -0.25979
 Alpha virt. eigenvalues --    0.01515   0.02470   0.02727   0.02813   0.05528
 Alpha virt. eigenvalues --    0.07051   0.07635   0.07761   0.07790   0.07791
 Alpha virt. eigenvalues --    0.09410   0.10051   0.12257   0.18025   0.20884

 Mulliken charges and spin densities:
               1          2
     1  Cr   0.833775   3.724322
     2  O   -0.833775   0.275678
 Sum of Mulliken charges =  -0.00000   4.00000

 Dipole moment (field-independent basis, Debye):
    X=              0.0000    Y=              0.0000    Z=              0.3612  Tot=              0.3612
 Quadrupole moment (field-independent basis, Debye-Ang):
   XX=            -22.3420   YY=            -19.8264   ZZ=            -22.7537
   XY=              0.0000   XZ=              0.0000   YZ=              0.0000

 \\#P ROCCSD(T)=(maxcyc=150, Full, SaveAmplitudes, ReadAmplitudes)/Gen
 510234\CCSD=-102.7364529\CCSD(T)=-102.7757926\RMSD=6.136e-09\PG=C*V [C
 Normal termination of Gaussian 16 at Thu Apr  5 03:32:57 2018.
