 Gaussian 16, Revision A.03,
 Gaussian 16:  ES64L-G16RevA.03 25-Dec-2016

 ----------------------------------------------------------------------
 #P ROCCSD(T)=(maxcyc=150, Full, SaveAmplitudes, ReadAmplitudes)/Gen 5d
  7f SCF=(maxcycles=300) Integral(NoXCTest) MaxDisk=500GB Pop=Regular P
 seudo=Read Guess=Read IOp(5/15=2)
 ----------------------------------------------------------------------

 ---
 TiO
 ---
 Symbolic Z-matrix:
 Charge =  0 Multiplicity = 3

                         Standard orientation:
 ---------------------------------------------------------------------
 Center     Atomic      Atomic             Coordinates (Angstroms)
 Number     Number       Type             X           Y           Z
 ---------------------------------------------------------------------
      1         22           0        0.000000    0.000000    0.426667
      2          8           0        0.000000    0.000000   -1.173333
 ---------------------------------------------------------------------

 SCF Done:  E(ROHF) =  -73.2750961370     A.U. after   16 cycles
 E2 =    -0.7431149154D+00 EUMP2 =    -0.74018211052435D+02
 CCSD(T)
 CCSD(T)= -0.74047539439D+02

 Unable to determine electronic state:  an orbital has unidentified symmetry.
 Alpha  occ. eigenvalues --   -3.00166  -1.91149  -1.91149  -1.90140  -1.15799
 Alpha  occ. eigenvalues --   -0.46848  -0.45293  -0.45293  -0.45206  -0.26220
 Alpha virt. eigenvalues --    0.00387   0.00387   0.01599   0.02559   0.04127
 Alpha virt. eigenvalues --    0.04127   0.04806   0.04951   0.05183   0.05867
 Alpha virt. eigenvalues --    0.05867   0.06817   0.10731   0.11227   0.13822

 Mulliken charges and spin densities:
               1          2
     1  Ti   0.897626   1.998887
     2  O   -0.897626   0.001113
 Sum of Mulliken charges =  -0.00000   2.00000

 Dipole moment (field-independent basis, Debye):
    X=              0.0000    Y=              0.0000    Z=              4.1393  Tot=              4.1393
 Quadrupole moment (field-independent basis, Debye-Ang):
   XX=            -21.5570   YY=            -21.5570   ZZ=            -29.1255
   XY=              0.0000   XZ=              0.0000   YZ=              0.0000

 \\#P ROCCSD(T)=(maxcyc=150, Full, SaveAmplitudes, ReadAmplitudes)/Gen
 .0033359\CCSD(T)=-74.0475394\RMSD=3.937e-09\PG=C*V [C*(O1Ti1)]\\@
 Normal termination of Gaussian 16 at Fri Mar  9 15:18:08 2018.
