 Gaussian 16, Revision A.03,
 Gaussian 16:  ES64L-G16RevA.03 25-Dec-2016

 ----------------------------------------------------------------------
 #P ROCCSD(T)=(MaxCyc=150, Full)/Gen SCF=(maxcycle=400, vshift=200) Pse
 udo=Read Integral(NoXCTest) Pop=Regular MaxDisk=500GB Guess=Read
 ----------------------------------------------------------------------

 ---
 NiO
 ---
 Symbolic Z-matrix:
 Charge =  0 Multiplicity = 3

                         Standard orientation:
 ---------------------------------------------------------------------
 Center     Atomic      Atomic             Coordinates (Angstroms)
 Number     Number       Type             X           Y           Z
 ---------------------------------------------------------------------
      1         28           0        0.000000    0.000000    0.266667
      2          8           0        0.000000    0.000000   -0.933333
 ---------------------------------------------------------------------

 SCF Done:  E(ROHF) =  -183.742029269     A.U. after   26 cycles
 E2 =    -0.1276016241D+01 EUMP2 =    -0.18501804550967D+03
 CCSD(T)
 CCSD(T)= -0.18496499953D+03

 The electronic state is 3-SG.
 Alpha  occ. eigenvalues --   -5.21425  -3.56258  -3.42360  -3.42360  -1.37811
 Alpha  occ. eigenvalues --   -0.90249  -0.90249  -0.76923  -0.70324  -0.70324
 Alpha  occ. eigenvalues --   -0.49396  -0.49396  -0.33680
 Alpha virt. eigenvalues --    0.00788   0.03022   0.03022   0.03530   0.05309
 Alpha virt. eigenvalues --    0.10166   0.10166   0.12053   0.12636   0.12636
 Alpha virt. eigenvalues --    0.12842   0.12842   0.13621   0.19184   0.25920

 Mulliken charges and spin densities:
               1          2
     1  Ni   0.744913   1.554946
     2  O   -0.744913   0.445054
 Sum of Mulliken charges =  -0.00000   2.00000

 Dipole moment (field-independent basis, Debye):
    X=              0.0000    Y=              0.0000    Z=              2.7707  Tot=              2.7707
 Quadrupole moment (field-independent basis, Debye-Ang):
   XX=            -19.2277   YY=            -19.2277   ZZ=            -18.9442
   XY=              0.0000   XZ=              0.0000   YZ=              0.0000

 \\#P ROCCSD(T)=(MaxCyc=150, Full)/Gen SCF=(maxcycle=400, vshift=200) P
 PMP2-0=-185.0180455\MP4SDQ=-184.9672223\CCSD=-184.9121352\CCSD(T)=-184
 Normal termination of Gaussian 16 at Fri May 11 03:30:08 2018.
