 Gaussian 16, Revision A.03,
 Gaussian 16:  ES64L-G16RevA.03 25-Dec-2016

 ----------------------------------------------------------------------
 #P ROCCSD(T)=(MaxCyc=150, Full)/Gen SCF=(maxcycle=400, vshift=200) Pse
 udo=Read Integral(NoXCTest) Pop=Regular MaxDisk=500GB Guess=Read
 ----------------------------------------------------------------------

 ---
 NiO
 ---
 Symbolic Z-matrix:
 Charge =  0 Multiplicity = 3

                         Standard orientation:
 ---------------------------------------------------------------------
 Center     Atomic      Atomic             Coordinates (Angstroms)
 Number     Number       Type             X           Y           Z
 ---------------------------------------------------------------------
      1         28           0        0.000000    0.000000    0.266667
      2          8           0        0.000000    0.000000   -0.933333
 ---------------------------------------------------------------------

 SCF Done:  E(ROHF) =  -183.746510367     A.U. after   21 cycles
 E2 =    -0.1334257075D+01 EUMP2 =    -0.18508076744150D+03
 CCSD(T)
 CCSD(T)= -0.18502559764D+03

 The electronic state is 3-SG.
 Alpha  occ. eigenvalues --   -5.21419  -3.56228  -3.42350  -3.42350  -1.37762
 Alpha  occ. eigenvalues --   -0.90261  -0.90261  -0.76919  -0.70332  -0.70332
 Alpha  occ. eigenvalues --   -0.49411  -0.49411  -0.33664
 Alpha virt. eigenvalues --    0.00738   0.02696   0.02696   0.03200   0.04974
 Alpha virt. eigenvalues --    0.07820   0.07820   0.08125   0.08370   0.08370
 Alpha virt. eigenvalues --    0.09651   0.09651   0.11659   0.17650   0.22139

 Mulliken charges and spin densities:
               1          2
     1  Ni   0.513066   1.569730
     2  O   -0.513066   0.430270
 Sum of Mulliken charges =  -0.00000   2.00000

 Dipole moment (field-independent basis, Debye):
    X=              0.0000    Y=              0.0000    Z=              2.7582  Tot=              2.7582
 Quadrupole moment (field-independent basis, Debye-Ang):
   XX=            -19.2265   YY=            -19.2265   ZZ=            -18.9307
   XY=              0.0000   XZ=              0.0000   YZ=              0.0000

 \\#P ROCCSD(T)=(MaxCyc=150, Full)/Gen SCF=(maxcycle=400, vshift=200) P
 PMP2-0=-185.0807674\MP4SDQ=-185.0243406\CCSD=-184.9701762\CCSD(T)=-185
 Normal termination of Gaussian 16 at Fri May 11 04:33:52 2018.
