 Gaussian 16, Revision A.03,
 Gaussian 16:  ES64L-G16RevA.03 25-Dec-2016

 ----------------------------------------------------------------------
 #P ROCCSD(T)=(MaxCyc=150, Full)/Gen SCF=(maxcycle=400) Pseudo=Read Int
 egral(NoXCTest) Pop=Regular MaxDisk=500GB Guess=Read IOp(5/15=2)
 ----------------------------------------------------------------------

 ---
 NiO
 ---
 Symbolic Z-matrix:
 Charge =  0 Multiplicity = 3

                         Standard orientation:
 ---------------------------------------------------------------------
 Center     Atomic      Atomic             Coordinates (Angstroms)
 Number     Number       Type             X           Y           Z
 ---------------------------------------------------------------------
      1         28           0        0.000000    0.000000    0.266667
      2          8           0        0.000000    0.000000   -0.933333
 ---------------------------------------------------------------------

 SCF Done:  E(ROHF) =  -184.417614044     A.U. after   18 cycles
 E2 =    -0.1345795500D+01 EUMP2 =    -0.18576340954472D+03
 CCSD(T)
 CCSD(T)= -0.18570680680D+03

 The electronic state is 3-SG.
 Alpha  occ. eigenvalues --   -5.24766  -3.56558  -3.42833  -3.42833  -1.37777
 Alpha  occ. eigenvalues --   -0.90113  -0.90113  -0.76889  -0.70264  -0.70264
 Alpha  occ. eigenvalues --   -0.49291  -0.49291  -0.33758
 Alpha virt. eigenvalues --    0.00641   0.02694   0.02694   0.03211   0.04849
 Alpha virt. eigenvalues --    0.07812   0.07812   0.08105   0.08371   0.08371
 Alpha virt. eigenvalues --    0.09662   0.09662   0.11685   0.17512   0.22157

 Mulliken charges and spin densities:
               1          2
     1  Ni   0.514482   1.572829
     2  O   -0.514482   0.427171
 Sum of Mulliken charges =  -0.00000   2.00000

 Dipole moment (field-independent basis, Debye):
    X=              0.0000    Y=              0.0000    Z=              2.8226  Tot=              2.8226
 Quadrupole moment (field-independent basis, Debye-Ang):
   XX=            -19.1602   YY=            -19.1602   ZZ=            -18.8262
   XY=              0.0000   XZ=              0.0000   YZ=              0.0000

 \\#P ROCCSD(T)=(MaxCyc=150, Full)/Gen SCF=(maxcycle=400) Pseudo=Read I
 P2-0=-185.7634095\MP4SDQ=-185.7065677\CCSD=-185.6509063\CCSD(T)=-185.7
 Normal termination of Gaussian 16 at Mon Mar 26 20:21:05 2018.
