 Gaussian 16, Revision A.03,
 Gaussian 16:  ES64L-G16RevA.03 25-Dec-2016

 ----------------------------------------------------------------------
 #P ROCCSD(T)=(MaxCyc=150, Full)/Gen SCF=(maxcycle=400) Pseudo=Read Int
 egral(NoXCTest) Pop=Regular MaxDisk=500GB Guess=Read IOp(5/15=2)
 ----------------------------------------------------------------------

 ---
 NiO
 ---
 Symbolic Z-matrix:
 Charge =  0 Multiplicity = 3

                         Standard orientation:
 ---------------------------------------------------------------------
 Center     Atomic      Atomic             Coordinates (Angstroms)
 Number     Number       Type             X           Y           Z
 ---------------------------------------------------------------------
      1         28           0        0.000000    0.000000    0.266667
      2          8           0        0.000000    0.000000   -0.933333
 ---------------------------------------------------------------------

 SCF Done:  E(ROHF) =  -184.413070559     A.U. after   22 cycles
 E2 =    -0.1287611991D+01 EUMP2 =    -0.18570068254945D+03
 CCSD(T)
 CCSD(T)= -0.18564627567D+03

 The electronic state is 3-SG.
 Alpha  occ. eigenvalues --   -5.24769  -3.56591  -3.42848  -3.42848  -1.37826
 Alpha  occ. eigenvalues --   -0.90101  -0.90101  -0.76893  -0.70256  -0.70256
 Alpha  occ. eigenvalues --   -0.49276  -0.49276  -0.33774
 Alpha virt. eigenvalues --    0.00687   0.03021   0.03021   0.03541   0.05176
 Alpha virt. eigenvalues --    0.10150   0.10150   0.12039   0.12650   0.12650
 Alpha virt. eigenvalues --    0.12846   0.12846   0.13642   0.19042   0.25910

 Mulliken charges and spin densities:
               1          2
     1  Ni   0.746746   1.557124
     2  O   -0.746746   0.442876
 Sum of Mulliken charges =  -0.00000   2.00000

 Dipole moment (field-independent basis, Debye):
    X=              0.0000    Y=              0.0000    Z=              2.8350  Tot=              2.8350
 Quadrupole moment (field-independent basis, Debye-Ang):
   XX=            -19.1613   YY=            -19.1613   ZZ=            -18.8398
   XY=              0.0000   XZ=              0.0000   YZ=              0.0000

 \\#P ROCCSD(T)=(MaxCyc=150, Full)/Gen SCF=(maxcycle=400) Pseudo=Read I
 PMP2-0=-185.7006825\MP4SDQ=-185.6495363\CCSD=-185.5929414\CCSD(T)=-185
 Normal termination of Gaussian 16 at Mon Mar 26 18:04:58 2018.
