 Gaussian 16, Revision A.03,
 Gaussian 16:  ES64L-G16RevA.03 25-Dec-2016

 ----------------------------------------------------------------------
 #P ROCCSD(T)=(maxcyc=150, Full, SaveAmplitudes, ReadAmplitudes)/Gen 5d
  7f SCF=(maxcycles=300) Integral(NoXCTest) MaxDisk=500GB Pop=Regular P
 seudo=Read Guess=Read
 ----------------------------------------------------------------------

 ---
 MnO
 ---
 Symbolic Z-matrix:
 Charge =  0 Multiplicity = 6

                         Standard orientation:
 ---------------------------------------------------------------------
 Center     Atomic      Atomic             Coordinates (Angstroms)
 Number     Number       Type             X           Y           Z
 ---------------------------------------------------------------------
      1         25           0        0.000000    0.000000    0.387879
      2          8           0        0.000000    0.000000   -1.212121
 ---------------------------------------------------------------------

 SCF Done:  E(ROHF) =  -119.166965510     A.U. after   22 cycles
 E2 =    -0.9469870219D+00 EUMP2 =    -0.12011395253182D+03
 CCSD(T)
 CCSD(T)= -0.12013853299D+03

 The electronic state is 6-SG.
 Alpha  occ. eigenvalues --   -4.22086  -2.77642  -2.77642  -2.76715  -1.14552
 Alpha  occ. eigenvalues --   -0.64552  -0.64552  -0.62687  -0.62687  -0.56748
 Alpha  occ. eigenvalues --   -0.35103  -0.35103  -0.33954
 Alpha virt. eigenvalues --   -0.03307   0.01539   0.01539   0.02026   0.03389
 Alpha virt. eigenvalues --    0.05822   0.05822   0.05982   0.05982   0.06297
 Alpha virt. eigenvalues --    0.07221   0.07221   0.11851   0.12877   0.17960

 Mulliken charges and spin densities:
               1          2
     1  Mn   1.238677   4.865920
     2  O   -1.238677   0.134080
 Sum of Mulliken charges =  -0.00000   5.00000

 Dipole moment (field-independent basis, Debye):
    X=              0.0000    Y=              0.0000    Z=              8.2599  Tot=              8.2599
 Quadrupole moment (field-independent basis, Debye-Ang):
   XX=            -18.8468   YY=            -18.8468   ZZ=            -23.0356
   XY=              0.0000   XZ=              0.0000   YZ=              0.0000

 \\#P ROCCSD(T)=(maxcyc=150, Full, SaveAmplitudes, ReadAmplitudes)/Gen
 9.1669655\PMP2-0=-120.1139525\CCSD=-120.095005\CCSD(T)=-120.138533\RMS
 Normal termination of Gaussian 16 at Tue Mar 13 15:59:10 2018.
