 Gaussian 16, Revision A.03,
 Gaussian 16:  ES64L-G16RevA.03 25-Dec-2016

 ----------------------------------------------------------------------
 #P ROCCSD(T)=(MaxCyc=150, Window=(7,0))/Gen SCF=(maxcycle=400) Integra
 l(DKHSO, NoXCTest) Pop=Regular MaxDisk=500GB
 ----------------------------------------------------------------------

 ---
 FeO
 ---
 Symbolic Z-matrix:
 Charge =  0 Multiplicity = 5

                         Standard orientation:
 ---------------------------------------------------------------------
 Center     Atomic      Atomic             Coordinates (Angstroms)
 Number     Number       Type             X           Y           Z
 ---------------------------------------------------------------------
      1         26           0        0.000000    0.000000    0.305882
      2          8           0        0.000000    0.000000   -0.994118
 ---------------------------------------------------------------------

 SCF Done:  E(ROHF) =  -1346.05103104     A.U. after   29 cycles
 E2 =    -0.1076611208D+01 EUMP2 =    -0.13471276422508D+04
 CCSD(T)
 CCSD(T)= -0.13471070013D+04

 Unable to determine electronic state:  partially filled degenerate orbitals.
 Alpha  occ. eigenvalues -- -263.68566 -32.48873 -27.56703 -27.54478 -27.54478
 Alpha  occ. eigenvalues --  -20.55599  -4.38918  -2.97175  -2.90714  -2.90714
 Alpha  occ. eigenvalues --   -1.27728  -0.75904  -0.75904  -0.62633  -0.61536
 Alpha  occ. eigenvalues --   -0.58286  -0.43124  -0.43124  -0.30773
 Alpha virt. eigenvalues --    0.01689   0.02276   0.02276   0.03037   0.05437
 Alpha virt. eigenvalues --    0.06446   0.06446   0.06659   0.06669   0.07675
 Alpha virt. eigenvalues --    0.07968   0.07968   0.11476   0.15544   0.19559

 Mulliken charges and spin densities:
               1          2
     1  Fe   0.893334   3.731656
     2  O   -0.893334   0.268344
 Sum of Mulliken charges =  -0.00000   4.00000

 Dipole moment (field-independent basis, Debye):
    X=              0.0000    Y=             -0.0000    Z=              2.9064  Tot=              2.9064
 Quadrupole moment (field-independent basis, Debye-Ang):
   XX=            -19.6661   YY=            -19.6661   ZZ=            -21.9852
   XY=              0.0000   XZ=             -0.0000   YZ=              0.0000

 1\1\GINC-C421-084\SP\ROCCSD(T)-RW\Gen\Fe1O1(5)\GWANG18\01-Mar-2018\0\\
 #P ROCCSD(T)=(MaxCyc=150, Window=(7,0))/Gen SCF=(maxcycle=400) Integra
 l(DKHSO, NoXCTest) Pop=Regular MaxDisk=500GB\\FeO\\0,5\Fe,0,0.,0.,0.\O
 ,0,0.,0.,1.3\\Version=ES64L-G16RevA.03\HF=-1346.051031\MP2=-1347.12764
 23\MP3=-1347.0069791\PUHF=-1346.051031\PMP2-0=-1347.1276423\MP4SDQ=-13
 47.093914\CCSD=-1347.0612481\CCSD(T)=-1347.1070013\RMSD=5.317e-09\PG=C
 *V [C*(O1Fe1)]\\@

 Normal termination of Gaussian 16 at Thu Mar  1 04:42:46 2018.
