 Gaussian 16, Revision A.03,
 Gaussian 16:  ES64L-G16RevA.03 25-Dec-2016

 ----------------------------------------------------------------------
 #P ROCCSD(T)=(maxcyc=150, Full)/Gen 5d 7f SCF=(maxcycles=300, NoVarAcc
 , VShift=200) MaxDisk=100GB Pop=Regular Pseudo=Read Guess=Read
 ----------------------------------------------------------------------

 --
 Mn
 --
 Symbolic Z-matrix:
 Charge =  0 Multiplicity = 6

                         Standard orientation:
 ---------------------------------------------------------------------
 Center     Atomic      Atomic             Coordinates (Angstroms)
 Number     Number       Type             X           Y           Z
 ---------------------------------------------------------------------
      1         25           0        0.000000    0.000000    0.000000
 ---------------------------------------------------------------------

 SCF Done:  E(ROHF) =  -103.512066823     A.U. after   22 cycles
 E2 =    -0.5925565222D+00 EUMP2 =    -0.10410462334556D+03
 CCSD(T)
 CCSD(T)= -0.10412453195D+03

 The electronic state is 6-A1G.
 Alpha  occ. eigenvalues --   -4.23020  -2.78563  -2.78563  -2.78563  -0.62965
 Alpha  occ. eigenvalues --   -0.62965  -0.62965  -0.62965  -0.62965  -0.26788
 Alpha virt. eigenvalues --    0.01740   0.01740   0.01740   0.02546   0.05839
 Alpha virt. eigenvalues --    0.05839   0.05839   0.06096   0.06096   0.06096
 Alpha virt. eigenvalues --    0.06096   0.06096   0.13392   0.19358   0.19358

 Mulliken charges and spin densities:
               1          2
     1  Mn  -0.000000   5.000000
 Sum of Mulliken charges =  -0.00000   5.00000

 Dipole moment (field-independent basis, Debye):
    X=              0.0000    Y=              0.0000    Z=              0.0000  Tot=              0.0000
 Quadrupole moment (field-independent basis, Debye-Ang):
   XX=            -18.8699   YY=            -18.8699   ZZ=            -18.8699
   XY=              0.0000   XZ=              0.0000   YZ=             -0.0000

 1\1\GINC-C442-122\SP\ROCCSD(T)-Full\Gen\Mn1(6)\AANNABE\12-Mar-2018\0\\
 #P ROCCSD(T)=(maxcyc=150, Full)/Gen 5d 7f SCF=(maxcycles=300, NoVarAcc
 , VShift=200) MaxDisk=100GB Pop=Regular Pseudo=Read Guess=Read\\Mn\\0,
 6\Mn,0,0.,0.,0.\\Version=ES64L-G16RevA.03\State=6-A1G\HF=-103.5120668\
 MP2=-104.1046233\MP3=-104.1036641\PUHF=-103.5120668\PMP2-0=-104.104623
 3\MP4SDQ=-104.1060724\CCSD=-104.1062432\CCSD(T)=-104.1245319\RMSD=5.64
 1e-09\PG=OH [O(Mn1)]\\@

 Normal termination of Gaussian 16 at Mon Mar 12 14:08:34 2018.
