 Gaussian 16, Revision A.03,
 Gaussian 16:  ES64L-G16RevA.03 25-Dec-2016

 ----------------------------------------------------------------------
 #P ROHF/Gen 5d 7f SCF=(maxcycles=300, VShift=300) MaxDisk=100GB Pop=Re
 gular Pseudo=Read Guess=Read IOp(5/15=2) IOP(3/32=2)
 ----------------------------------------------------------------------

 --
 Mn
 --
 Symbolic Z-matrix:
 Charge =  0 Multiplicity = 6

                         Standard orientation:
 ---------------------------------------------------------------------
 Center     Atomic      Atomic             Coordinates (Angstroms)
 Number     Number       Type             X           Y           Z
 ---------------------------------------------------------------------
      1         25           0        0.000000    0.000000    0.000000
 ---------------------------------------------------------------------

 SCF Done:  E(ROHF) =  -103.516201842     A.U. after    9 cycles

 The electronic state is 6-A1G.
 Alpha  occ. eigenvalues --   -3.94103  -2.43242  -2.43242  -2.43242  -0.24471
 Alpha  occ. eigenvalues --   -0.08920  -0.08920  -0.08920  -0.08920  -0.08920
 Alpha virt. eigenvalues --    0.01847   0.01847   0.01847   0.02595   0.06095
 Alpha virt. eigenvalues --    0.06095   0.06095   0.06106   0.06106   0.06106
 Alpha virt. eigenvalues --    0.06106   0.06106   0.13657   0.19580   0.19580

 Mulliken charges and spin densities:
               1          2
     1  Mn  -0.000000   5.000000
 Sum of Mulliken charges =  -0.00000   5.00000

 Dipole moment (field-independent basis, Debye):
    X=              0.0000    Y=              0.0000    Z=              0.0000  Tot=              0.0000
 Quadrupole moment (field-independent basis, Debye-Ang):
   XX=            -18.8657   YY=            -18.8657   ZZ=            -18.8657
   XY=             -0.0000   XZ=              0.0000   YZ=             -0.0000

 Normal termination of Gaussian 16 at Sun Mar 18 14:18:50 2018.
