 Gaussian 16, Revision A.03,
 Gaussian 16:  ES64L-G16RevA.03 25-Dec-2016

 ----------------------------------------------------------------------
 #P ROCCSD(T)=(MaxCyc=150, Full)/Gen SCF=(maxcycle=400, vshift=200) Pse
 udo=Read Integral(NoXCTest) Pop=Regular MaxDisk=500GB Guess=Read IOp(5
 /15=2)
 ----------------------------------------------------------------------

 ---
 CuO
 ---
 Symbolic Z-matrix:
 Charge =  0 Multiplicity = 2

                         Standard orientation:
 ---------------------------------------------------------------------
 Center     Atomic      Atomic             Coordinates (Angstroms)
 Number     Number       Type             X           Y           Z
 ---------------------------------------------------------------------
      1         29           0        0.000000    0.000000    0.259459
      2          8           0        0.000000    0.000000   -0.940541
 ---------------------------------------------------------------------

 SCF Done:  E(ROHF) =  -210.656493879     A.U. after   28 cycles
 E2 =    -0.1437878922D+01 EUMP2 =    -0.21209437280180D+03
 CCSD(T)
 CCSD(T)= -0.21199217996D+03

 Unable to determine electronic state:  an orbital has unidentified symmetry.
 Alpha  occ. eigenvalues --   -5.50393  -3.72373  -3.65801  -3.61538  -1.38069
 Alpha  occ. eigenvalues --   -0.88427  -0.84933  -0.75923  -0.71012  -0.70702
 Alpha  occ. eigenvalues --   -0.50348  -0.46408  -0.35251
 Alpha virt. eigenvalues --    0.00642   0.02781   0.02888   0.03383   0.05320
 Alpha virt. eigenvalues --    0.09408   0.09792   0.11928   0.13774   0.13803
 Alpha virt. eigenvalues --    0.13804   0.14007   0.14267   0.18891   0.22058

 Mulliken charges and spin densities:
               1          2
     1  Cu   0.620947   0.467273
     2  O   -0.620947   0.532727
 Sum of Mulliken charges =  -0.00000   1.00000

 Dipole moment (field-independent basis, Debye):
    X=              0.0000    Y=              0.0000    Z=              3.1856  Tot=              3.1856
 Quadrupole moment (field-independent basis, Debye-Ang):
   XX=            -17.8910   YY=            -19.0151   ZZ=            -18.5077
   XY=              0.0000   XZ=              0.0000   YZ=              0.0000

 \\#P ROCCSD(T)=(MaxCyc=150, Full)/Gen SCF=(maxcycle=400, vshift=200) P
 \PMP2-0=-212.0943728\MP4SDQ=-212.0106428\CCSD=-211.9372306\CCSD(T)=-21
 Normal termination of Gaussian 16 at Sat May  5 23:54:39 2018.
