 Gaussian 16, Revision A.03,
 Gaussian 16:  ES64L-G16RevA.03 25-Dec-2016

 ----------------------------------------------------------------------
 #P ROCCSD(T)=(MaxCyc=150, Full)/Gen SCF=(maxcycle=400, vshift=200) Pse
 udo=Read Integral(NoXCTest) Pop=Regular MaxDisk=500GB Guess=Read IOp(5
 /15=2)
 ----------------------------------------------------------------------

 ---
 CuO
 ---
 Symbolic Z-matrix:
 Charge =  0 Multiplicity = 2

                         Standard orientation:
 ---------------------------------------------------------------------
 Center     Atomic      Atomic             Coordinates (Angstroms)
 Number     Number       Type             X           Y           Z
 ---------------------------------------------------------------------
      1         29           0        0.000000    0.000000    0.259459
      2          8           0        0.000000    0.000000   -0.940541
 ---------------------------------------------------------------------

 SCF Done:  E(ROHF) =  -210.651790613     A.U. after   44 cycles
 E2 =    -0.1373526379D+01 EUMP2 =    -0.21202531699176D+03
 CCSD(T)
 CCSD(T)= -0.21192551401D+03

 Unable to determine electronic state:  an orbital has unidentified symmetry.
 Alpha  occ. eigenvalues --   -5.50417  -3.72417  -3.65833  -3.61563  -1.38123
 Alpha  occ. eigenvalues --   -0.88425  -0.84926  -0.75940  -0.71016  -0.70707
 Alpha  occ. eigenvalues --   -0.50343  -0.46398  -0.35272
 Alpha virt. eigenvalues --    0.00683   0.03145   0.03279   0.03723   0.05698
 Alpha virt. eigenvalues --    0.10799   0.11268   0.13259   0.18759   0.19937
 Alpha virt. eigenvalues --    0.19942   0.20875   0.21388   0.21881   0.25691

 Mulliken charges and spin densities:
               1          2
     1  Cu   0.880690   0.450228
     2  O   -0.880690   0.549772
 Sum of Mulliken charges =  -0.00000   1.00000

 Dipole moment (field-independent basis, Debye):
    X=              0.0000    Y=              0.0000    Z=              3.1976  Tot=              3.1976
 Quadrupole moment (field-independent basis, Debye-Ang):
   XX=            -17.8984   YY=            -19.0347   ZZ=            -18.5036
   XY=              0.0000   XZ=              0.0000   YZ=              0.0000

 \\#P ROCCSD(T)=(MaxCyc=150, Full)/Gen SCF=(maxcycle=400, vshift=200) P
 PMP2-0=-212.025317\MP4SDQ=-211.9479237\CCSD=-211.8732522\CCSD(T)=-211.
 Normal termination of Gaussian 16 at Sat May  5 21:29:38 2018.
