 Gaussian 16, Revision A.03,
 Gaussian 16:  ES64L-G16RevA.03 25-Dec-2016

 ----------------------------------------------------------------------
 #P ROCCSD(T)=(maxcyc=150, Full, SaveAmplitudes, ReadAmplitudes)/Gen 5d
  7f SCF=(maxcycles=300) Integral(NoXCTest) MaxDisk=500GB Pop=Regular P
 seudo=Read Guess=Read IOp(5/15=2)
 ----------------------------------------------------------------------

 ---
 TiO
 ---
 Symbolic Z-matrix:
 Charge =  0 Multiplicity = 3

                         Standard orientation:
 ---------------------------------------------------------------------
 Center     Atomic      Atomic             Coordinates (Angstroms)
 Number     Number       Type             X           Y           Z
 ---------------------------------------------------------------------
      1         22           0        0.000000    0.000000    0.453333
      2          8           0        0.000000    0.000000   -1.246667
 ---------------------------------------------------------------------

 SCF Done:  E(ROHF) =  -73.5407658501     A.U. after   22 cycles
 E2 =    -0.7529961365D+00 EUMP2 =    -0.74293761986542D+02
 CCSD(T)
 CCSD(T)= -0.74325431839D+02

 Unable to determine electronic state:  an orbital has unidentified symmetry.
 Alpha  occ. eigenvalues --   -3.06542  -1.93158  -1.93158  -1.90161  -1.14357
 Alpha  occ. eigenvalues --   -0.48403  -0.44955  -0.41935  -0.41935  -0.27714
 Alpha virt. eigenvalues --    0.00006   0.00006   0.01197   0.02460   0.03859
 Alpha virt. eigenvalues --    0.03859   0.04517   0.04848   0.05133   0.05900
 Alpha virt. eigenvalues --    0.05900   0.06360   0.09679   0.11000   0.13097

 Mulliken charges and spin densities:
               1          2
     1  Ti   0.929356   1.991031
     2  O   -0.929356   0.008969
 Sum of Mulliken charges =  -0.00000   2.00000

 Dipole moment (field-independent basis, Debye):
    X=              0.0000    Y=              0.0000    Z=              5.2147  Tot=              5.2147
 Quadrupole moment (field-independent basis, Debye-Ang):
   XX=            -21.4432   YY=            -21.4432   ZZ=            -29.4845
   XY=              0.0000   XZ=              0.0000   YZ=              0.0000

 \\#P ROCCSD(T)=(maxcyc=150, Full, SaveAmplitudes, ReadAmplitudes)/Gen
 766225\CCSD(T)=-74.3254318\RMSD=7.484e-09\PG=C*V [C*(O1Ti1)]\\@
 Normal termination of Gaussian 16 at Tue Mar 13 01:17:46 2018.
