 Gaussian 16, Revision A.03,
 Gaussian 16:  ES64L-G16RevA.03 25-Dec-2016

 ----------------------------------------------------------------------
 #P ROCCSD(T)=(maxcyc=150, Full, SaveAmplitudes, ReadAmplitudes)/Gen 5d
  7f SCF=(maxcycles=300, VShift=400) Integral(NoXCTest) MaxDisk=500GB P
 op=Full Pseudo=Read Guess=Read IOp(5/15=2)
 ----------------------------------------------------------------------

 ---
 CrO
 ---
 Symbolic Z-matrix:
 Charge =  0 Multiplicity = 5

                         Standard orientation:
 ---------------------------------------------------------------------
 Center     Atomic      Atomic             Coordinates (Angstroms)
 Number     Number       Type             X           Y           Z
 ---------------------------------------------------------------------
      1         24           0        0.000000    0.000000    0.400000
      2          8           0        0.000000    0.000000   -1.200000
 ---------------------------------------------------------------------

 SCF Done:  E(ROHF) =  -101.502840745     A.U. after   43 cycles
 E2 =    -0.8787187441D+00 EUMP2 =    -0.10238155948907D+03
 CCSD(T)
 CCSD(T)= -0.10240805090D+03

 Unable to determine electronic state:  an orbital has unidentified symmetry.
 Alpha  occ. eigenvalues --   -3.77268  -2.49396  -2.45422  -2.42284  -1.17743
 Alpha  occ. eigenvalues --   -0.61525  -0.58049  -0.56809  -0.48037  -0.43092
 Alpha  occ. eigenvalues --   -0.38516  -0.31856
 Alpha virt. eigenvalues --   -0.00205   0.00637   0.01706   0.03217   0.03901
 Alpha virt. eigenvalues --    0.04556   0.06133   0.07577   0.07591   0.08069
 Alpha virt. eigenvalues --    0.08071   0.08480   0.13162   0.13573   0.15946

 Mulliken charges and spin densities:
               1          2
     1  Cr   1.078258   3.858026
     2  O   -1.078258   0.141974
 Sum of Mulliken charges =  -0.00000   4.00000

 Dipole moment (field-independent basis, Debye):
    X=              0.0000    Y=              0.0000    Z=              6.1746  Tot=              6.1746
 Quadrupole moment (field-independent basis, Debye-Ang):
   XX=            -20.6709   YY=            -19.5812   ZZ=            -23.9349
   XY=              0.0000   XZ=              0.0000   YZ=              0.0000

 \\#P ROCCSD(T)=(maxcyc=150, Full, SaveAmplitudes, ReadAmplitudes)/Gen
 00896\CCSD=-102.3579622\CCSD(T)=-102.4080509\RMSD=6.737e-09\PG=C*V [C*
 Normal termination of Gaussian 16 at Fri Apr  6 11:28:49 2018.
