 Gaussian 16, Revision A.03,
 Gaussian 16:  ES64L-G16RevA.03 25-Dec-2016

 ----------------------------------------------------------------------
 #P ROCCSD(T)=(maxcyc=150, Full, SaveAmplitudes, ReadAmplitudes)/Gen 5d
  7f SCF=(maxcycles=300) Integral(NoXCTest) MaxDisk=500GB Pop=Regular P
 seudo=Read Guess=Read IOp(5/15=2)
 ----------------------------------------------------------------------

 ---
 ScO
 ---
 Symbolic Z-matrix:
 Charge =  0 Multiplicity = 2

                         Standard orientation:
 ---------------------------------------------------------------------
 Center     Atomic      Atomic             Coordinates (Angstroms)
 Number     Number       Type             X           Y           Z
 ---------------------------------------------------------------------
      1         21           0        0.000000    0.000000    0.441379
      2          8           0        0.000000    0.000000   -1.158621
 ---------------------------------------------------------------------

 SCF Done:  E(ROHF) =  -62.0819250318     A.U. after   18 cycles
 E2 =    -0.6847289494D+00 EUMP2 =    -0.62766653981221D+02
 CCSD(T)
 CCSD(T)= -0.62794053385D+02

 The electronic state is 2-SG.
 Alpha  occ. eigenvalues --   -2.66968  -1.66767  -1.60969  -1.60969  -1.11602
 Alpha  occ. eigenvalues --   -0.44021  -0.44021  -0.43793  -0.24106
 Alpha virt. eigenvalues --    0.00327   0.00327   0.01668   0.02300   0.03653
 Alpha virt. eigenvalues --    0.03653   0.03761   0.03761   0.04199   0.04199
 Alpha virt. eigenvalues --    0.04267   0.06021   0.09045   0.09045   0.10693

 Mulliken charges and spin densities:
               1          2
     1  Sc   1.279076   0.974875
     2  O   -1.279076   0.025125
 Sum of Mulliken charges =  -0.00000   1.00000

 Dipole moment (field-independent basis, Debye):
    X=              0.0000    Y=              0.0000    Z=              3.9347  Tot=              3.9347
 Quadrupole moment (field-independent basis, Debye-Ang):
   XX=            -21.8154   YY=            -21.8154   ZZ=            -31.5689
   XY=              0.0000   XZ=              0.0000   YZ=              0.0000

 \\#P ROCCSD(T)=(maxcyc=150, Full, SaveAmplitudes, ReadAmplitudes)/Gen
 CSD=-62.7559213\CCSD(T)=-62.7940534\RMSD=4.630e-09\PG=C*V [C*(O1Sc1)]\
 Normal termination of Gaussian 16 at Wed Feb 21 02:44:03 2018.
