 Gaussian 16, Revision A.03,
 Gaussian 16:  ES64L-G16RevA.03 25-Dec-2016

 ----------------------------------------------------------------------
 #P ROCCSD(T)=(maxcyc=150, FrzINGC)/Gen 5d 7f SCF=(maxcycles=300) Integ
 ral(NoXCTest, DKHSO) MaxDisk=500GB Pop=Regular IOp(5/15=2) Guess=Read
 ----------------------------------------------------------------------

 ---
 ScH
 ---
 Symbolic Z-matrix:
 Charge =  0 Multiplicity = 1

                         Standard orientation:
 ---------------------------------------------------------------------
 Center     Atomic      Atomic             Coordinates (Angstroms)
 Number     Number       Type             X           Y           Z
 ---------------------------------------------------------------------
      1         21           0        0.000000    0.000000    0.100000
      2          1           0        0.000000    0.000000   -2.100000
 ---------------------------------------------------------------------

 SCF Done:  E(ROHF) =  -763.812245084     A.U. after   13 cycles
 E2 =    -0.3956056942D+00 EUMP2 =    -0.76420785077824D+03
 CCSD(T)
 CCSD(T)= -0.76425426082D+03

 The electronic state is 1-SG.
 Alpha  occ. eigenvalues -- -166.96003 -19.41699 -15.84039 -15.84039 -15.83200
 Alpha  occ. eigenvalues --   -2.72132  -1.69467  -1.69467  -1.69243  -0.35854
 Alpha  occ. eigenvalues --   -0.24658
 Alpha virt. eigenvalues --    0.00807   0.00807   0.01033   0.01860   0.02546
 Alpha virt. eigenvalues --    0.02546   0.02687   0.02687   0.02774   0.03359
 Alpha virt. eigenvalues --    0.03668   0.03668   0.05894   0.05894   0.06773

 Mulliken charges and spin densities:
               1          2
     1  Sc   0.357906   0.000000
     2  H   -0.357906   0.000000
 Sum of Mulliken charges =  -0.00000   0.00000

 Dipole moment (field-independent basis, Debye):
    X=              0.0000    Y=             -0.0000    Z=              2.8853  Tot=              2.8853
 Quadrupole moment (field-independent basis, Debye-Ang):
   XX=            -23.3017   YY=            -23.3017   ZZ=            -30.7810
   XY=             -0.0000   XZ=              0.0000   YZ=             -0.0000

  ROCCSD(T)=(maxcyc=150, FrzINGC)/Gen 5d 7f SCF=(maxcycles=300) Integra
 \PMP2-0=-764.2078508\MP4SDQ=-764.2330121\CCSD=-764.2349849\CCSD(T)=-76
 Normal termination of Gaussian 16 at Wed Feb 14 20:26:04 2018.
