 Gaussian 16, Revision A.03,
 Gaussian 16:  ES64L-G16RevA.03 25-Dec-2016

 ----------------------------------------------------------------------
 #P ROCCSD(T)=(maxcyc=150, Full)/Gen 5d 7f SCF=(maxcycles=300) Integral
 (NoXCTest, DKHSO) MaxDisk=500GB Pop=Regular IOp(5/15=2) Guess=Read
 ----------------------------------------------------------------------

 ---
 ScH
 ---
 Symbolic Z-matrix:
 Charge =  0 Multiplicity = 1

                         Standard orientation:
 ---------------------------------------------------------------------
 Center     Atomic      Atomic             Coordinates (Angstroms)
 Number     Number       Type             X           Y           Z
 ---------------------------------------------------------------------
      1         21           0        0.000000    0.000000    0.054545
      2          1           0        0.000000    0.000000   -1.145455
 ---------------------------------------------------------------------

 SCF Done:  E(ROHF) =  -763.714163875     A.U. after   13 cycles
 E2 =    -0.8067653666D+00 EUMP2 =    -0.76452092924133D+03
 CCSD(T)
 CCSD(T)= -0.76454991255D+03

 The electronic state is 1-SG.
 Alpha  occ. eigenvalues -- -166.82864 -19.27120 -15.69539 -15.69539 -15.68881
 Alpha  occ. eigenvalues --   -2.61139  -1.63050  -1.58540  -1.58540  -0.46882
 Alpha  occ. eigenvalues --   -0.21476
 Alpha virt. eigenvalues --    0.01309   0.01309   0.01364   0.01675   0.02607
 Alpha virt. eigenvalues --    0.02607   0.02626   0.02640   0.02640   0.04078
 Alpha virt. eigenvalues --    0.04391   0.04391   0.07059   0.07421   0.07421

 Mulliken charges and spin densities:
               1          2
     1  Sc   0.294438   0.000000
     2  H   -0.294438   0.000000
 Sum of Mulliken charges =  -0.00000   0.00000

 Dipole moment (field-independent basis, Debye):
    X=              0.0000    Y=             -0.0000    Z=              0.6958  Tot=              0.6958
 Quadrupole moment (field-independent basis, Debye-Ang):
   XX=            -24.0871   YY=            -24.0871   ZZ=            -23.0471
   XY=              0.0000   XZ=              0.0000   YZ=             -0.0000

 P ROCCSD(T)=(maxcyc=150, Full)/Gen 5d 7f SCF=(maxcycles=300) Integral(
 MP2-0=-764.5209292\MP4SDQ=-764.5307776\CCSD=-764.5304439\CCSD(T)=-764.
 Normal termination of Gaussian 16 at Wed Feb 14 16:08:48 2018.
