 Gaussian 16, Revision A.03,
 Gaussian 16:  ES64L-G16RevA.03 25-Dec-2016

 ----------------------------------------------------------------------
 #P ROCCSD(T)=(MaxCyc=150, Full)/Gen SCF=(maxcycle=400) Pseudo=Read Int
 egral(NoXCTest) Pop=Regular MaxDisk=500GB Guess=Read IOp(5/15=2)
 ----------------------------------------------------------------------

 ---
 CuO
 ---
 Symbolic Z-matrix:
 Charge =  0 Multiplicity = 2

                         Standard orientation:
 ---------------------------------------------------------------------
 Center     Atomic      Atomic             Coordinates (Angstroms)
 Number     Number       Type             X           Y           Z
 ---------------------------------------------------------------------
      1         29           0        0.000000    0.000000    0.302703
      2          8           0        0.000000    0.000000   -1.097297
 ---------------------------------------------------------------------

 SCF Done:  E(ROHF) =  -211.813081114     A.U. after   40 cycles
 E2 =    -0.1343709191D+01 EUMP2 =    -0.21315679030451D+03
 CCSD(T)
 CCSD(T)= -0.21308765172D+03

 Unable to determine electronic state:  an orbital has unidentified symmetry.
 Alpha  occ. eigenvalues --   -5.47562  -3.70490  -3.68581  -3.62822  -1.25632
 Alpha  occ. eigenvalues --   -0.78047  -0.73684  -0.71057  -0.69109  -0.67851
 Alpha  occ. eigenvalues --   -0.43377  -0.41059  -0.39063
 Alpha virt. eigenvalues --   -0.02499   0.02923   0.03035   0.03482   0.04331
 Alpha virt. eigenvalues --    0.09961   0.10321   0.13664   0.18559   0.19398
 Alpha virt. eigenvalues --    0.19402   0.20257   0.22681   0.23041   0.25884

 Mulliken charges and spin densities:
               1          2
     1  Cu   1.119335   0.643730
     2  O   -1.119335   0.356270
 Sum of Mulliken charges =   0.00000   1.00000

 Dipole moment (field-independent basis, Debye):
    X=              0.0000    Y=              0.0000    Z=              6.1783  Tot=              6.1783
 Quadrupole moment (field-independent basis, Debye-Ang):
   XX=            -17.1413   YY=            -18.0353   ZZ=            -19.2960
   XY=              0.0000   XZ=              0.0000   YZ=              0.0000

 \\#P ROCCSD(T)=(MaxCyc=150, Full)/Gen SCF=(maxcycle=400) Pseudo=Read I
 1567903\MP4SDQ=-213.1029172\CCSD=-213.0357511\CCSD(T)=-213.0876517\RMS
 Normal termination of Gaussian 16 at Mon Mar 26 12:47:51 2018.
