 Gaussian 16, Revision A.03,
 Gaussian 16:  ES64L-G16RevA.03 25-Dec-2016

 ----------------------------------------------------------------------
 #P ROCCSD(T)=(MaxCyc=150, Full)/Gen SCF=(maxcycle=400) Pseudo=Read Int
 egral(NoXCTest) Pop=Regular MaxDisk=500GB Guess=Read IOp(5/15=2)
 ----------------------------------------------------------------------

 ---
 CuO
 ---
 Symbolic Z-matrix:
 Charge =  0 Multiplicity = 2

                         Standard orientation:
 ---------------------------------------------------------------------
 Center     Atomic      Atomic             Coordinates (Angstroms)
 Number     Number       Type             X           Y           Z
 ---------------------------------------------------------------------
      1         29           0        0.000000    0.000000    0.302703
      2          8           0        0.000000    0.000000   -1.097297
 ---------------------------------------------------------------------

 SCF Done:  E(ROHF) =  -211.817037814     A.U. after   21 cycles
 E2 =    -0.1407620835D+01 EUMP2 =    -0.21322465864881D+03
 CCSD(T)
 CCSD(T)= -0.21315308912D+03

 Unable to determine electronic state:  an orbital has unidentified symmetry.
 Alpha  occ. eigenvalues --   -5.47556  -3.70468  -3.68568  -3.62812  -1.25564
 Alpha  occ. eigenvalues --   -0.78043  -0.73685  -0.71048  -0.69109  -0.67845
 Alpha  occ. eigenvalues --   -0.43376  -0.41063  -0.39050
 Alpha virt. eigenvalues --   -0.02500   0.02543   0.02635   0.03151   0.03986
 Alpha virt. eigenvalues --    0.08532   0.08811   0.11598   0.13438   0.13444
 Alpha virt. eigenvalues --    0.14361   0.14544   0.14757   0.16944   0.22179

 Mulliken charges and spin densities:
               1          2
     1  Cu   0.899761   0.649680
     2  O   -0.899761   0.350320
 Sum of Mulliken charges =  -0.00000   1.00000

 Dipole moment (field-independent basis, Debye):
    X=              0.0000    Y=              0.0000    Z=              6.1662  Tot=              6.1662
 Quadrupole moment (field-independent basis, Debye-Ang):
   XX=            -17.1319   YY=            -18.0111   ZZ=            -19.3034
   XY=              0.0000   XZ=              0.0000   YZ=              0.0000

 \\#P ROCCSD(T)=(MaxCyc=150, Full)/Gen SCF=(maxcycle=400) Pseudo=Read I
 .2246586\MP4SDQ=-213.1643891\CCSD=-213.0984179\CCSD(T)=-213.1530891\RM
 Normal termination of Gaussian 16 at Mon Mar 26 15:16:53 2018.
