 Gaussian 16, Revision A.03,
 Gaussian 16:  ES64L-G16RevA.03 25-Dec-2016

 ----------------------------------------------------------------------
 #P ROCCSD(T)=(maxcyc=150, Full, SaveAmplitudes, ReadAmplitudes)/Gen 5d
  7f SCF=(maxcycles=300) Integral(NoXCTest) MaxDisk=500GB Pop=Regular P
 seudo=Read Guess=Read IOp(5/15=2)
 ----------------------------------------------------------------------

 ---
 CrO
 ---
 Symbolic Z-matrix:
 Charge =  0 Multiplicity = 5

                         Standard orientation:
 ---------------------------------------------------------------------
 Center     Atomic      Atomic             Coordinates (Angstroms)
 Number     Number       Type             X           Y           Z
 ---------------------------------------------------------------------
      1         24           0        0.000000    0.000000    0.375000
      2          8           0        0.000000    0.000000   -1.125000
 ---------------------------------------------------------------------

 SCF Done:  E(ROHF) =  -102.015765500     A.U. after   26 cycles
 E2 =    -0.8968355402D+00 EUMP2 =    -0.10291260104058D+03
 CCSD(T)
 CCSD(T)= -0.10293670259D+03

 Unable to determine electronic state:  an orbital has unidentified symmetry.
 Alpha  occ. eigenvalues --   -3.71042  -2.48625  -2.44612  -2.41671  -1.19645
 Alpha  occ. eigenvalues --   -0.63410  -0.57668  -0.56068  -0.50430  -0.48099
 Alpha  occ. eigenvalues --   -0.39832  -0.30241
 Alpha virt. eigenvalues --    0.00671   0.01218   0.01909   0.03150   0.04549
 Alpha virt. eigenvalues --    0.04859   0.06290   0.07605   0.07614   0.08010
 Alpha virt. eigenvalues --    0.08430   0.08579   0.12839   0.14352   0.16503

 Mulliken charges and spin densities:
               1          2
     1  Cr   1.034124   3.835401
     2  O   -1.034124   0.164599
 Sum of Mulliken charges =  -0.00000   4.00000

 Dipole moment (field-independent basis, Debye):
    X=              0.0000    Y=              0.0000    Z=              4.4084  Tot=              4.4084
 Quadrupole moment (field-independent basis, Debye-Ang):
   XX=            -20.7572   YY=            -19.6412   ZZ=            -24.5385
   XY=              0.0000   XZ=              0.0000   YZ=              0.0000

 \\#P ROCCSD(T)=(maxcyc=150, Full, SaveAmplitudes, ReadAmplitudes)/Gen
 =-102.8880801\CCSD(T)=-102.9367026\RMSD=7.058e-09\PG=C*V [C*(O1Cr1)]\\
 Normal termination of Gaussian 16 at Tue Mar 13 06:55:57 2018.
