 Gaussian 16, Revision A.03,
 Gaussian 16:  ES64L-G16RevA.03 25-Dec-2016

 ----------------------------------------------------------------------
 #P ROCCSD(T)=(maxcyc=150, Full, SaveAmplitudes, ReadAmplitudes)/Gen 5d
  7f SCF=(maxcycles=300, VShift=200) Integral(NoXCTest) MaxDisk=500GB P
 op=Regular Pseudo=Read Guess=Read IOp(5/15=2)
 ----------------------------------------------------------------------

 ---
 MnO
 ---
 Symbolic Z-matrix:
 Charge =  0 Multiplicity = 6

                         Standard orientation:
 ---------------------------------------------------------------------
 Center     Atomic      Atomic             Coordinates (Angstroms)
 Number     Number       Type             X           Y           Z
 ---------------------------------------------------------------------
      1         25           0        0.000000    0.000000    0.315152
      2          8           0        0.000000    0.000000   -0.984848
 ---------------------------------------------------------------------

 SCF Done:  E(ROHF) =  -118.957496765     A.U. after   33 cycles
 E2 =    -0.9292820453D+00 EUMP2 =    -0.11988677881024D+03
 CCSD(T)
 CCSD(T)= -0.11989380042D+03

 The electronic state is 6-SG.
 Alpha  occ. eigenvalues --   -4.13657  -2.77518  -2.77494  -2.77494  -1.27719
 Alpha  occ. eigenvalues --   -0.73411  -0.73411  -0.61360  -0.61360  -0.60217
 Alpha  occ. eigenvalues --   -0.40657  -0.40657  -0.30148
 Alpha virt. eigenvalues --    0.01913   0.02424   0.02424   0.03165   0.06388
 Alpha virt. eigenvalues --    0.07596   0.07596   0.08766   0.08766   0.09364
 Alpha virt. eigenvalues --    0.09364   0.10255   0.12073   0.16391   0.24550

 Mulliken charges and spin densities:
               1          2
     1  Mn   0.797072   4.759766
     2  O   -0.797072   0.240234
 Sum of Mulliken charges =  -0.00000   5.00000

 Dipole moment (field-independent basis, Debye):
    X=              0.0000    Y=              0.0000    Z=              2.7170  Tot=              2.7170
 Quadrupole moment (field-independent basis, Debye-Ang):
   XX=            -19.8505   YY=            -19.8505   ZZ=            -22.9066
   XY=              0.0000   XZ=              0.0000   YZ=              0.0000

 \\#P ROCCSD(T)=(maxcyc=150, Full, SaveAmplitudes, ReadAmplitudes)/Gen
 \MP4SDQ=-119.8685379\CCSD=-119.8545029\CCSD(T)=-119.8938004\RMSD=8.574
 Normal termination of Gaussian 16 at Fri Mar 16 02:32:32 2018.
