 Gaussian 16, Revision A.03,
 Gaussian 16:  ES64L-G16RevA.03 25-Dec-2016

 ----------------------------------------------------------------------
 #P ROCCSD(T)=(MaxCyc=150, Full)/Gen SCF=(maxcycle=400, vshift=200) Pse
 udo=Read Integral(NoXCTest) Pop=Regular MaxDisk=500GB Guess=Read
 ----------------------------------------------------------------------

 ---
 NiO
 ---
 Symbolic Z-matrix:
 Charge =  0 Multiplicity = 3

                         Standard orientation:
 ---------------------------------------------------------------------
 Center     Atomic      Atomic             Coordinates (Angstroms)
 Number     Number       Type             X           Y           Z
 ---------------------------------------------------------------------
      1         28           0        0.000000    0.000000    0.288889
      2          8           0        0.000000    0.000000   -1.011111
 ---------------------------------------------------------------------

 SCF Done:  E(ROHF) =  -183.974105918     A.U. after   20 cycles
 E2 =    -0.1308315650D+01 EUMP2 =    -0.18528242156812D+03
 CCSD(T)
 CCSD(T)= -0.18525002476D+03

 The electronic state is 3-SG.
 Alpha  occ. eigenvalues --   -5.19822  -3.51509  -3.40199  -3.40199  -1.30602
 Alpha  occ. eigenvalues --   -0.83406  -0.83406  -0.72276  -0.68619  -0.68619
 Alpha  occ. eigenvalues --   -0.45329  -0.45329  -0.35851
 Alpha virt. eigenvalues --   -0.01260   0.02500   0.02500   0.03388   0.03717
 Alpha virt. eigenvalues --    0.07606   0.07606   0.07843   0.08297   0.08297
 Alpha virt. eigenvalues --    0.09677   0.09677   0.12484   0.16479   0.22485

 Mulliken charges and spin densities:
               1          2
     1  Ni   0.736494   1.678015
     2  O   -0.736494   0.321985
 Sum of Mulliken charges =  -0.00000   2.00000

 Dipole moment (field-independent basis, Debye):
    X=              0.0000    Y=              0.0000    Z=              4.8235  Tot=              4.8235
 Quadrupole moment (field-independent basis, Debye-Ang):
   XX=            -18.6105   YY=            -18.6105   ZZ=            -18.9054
   XY=              0.0000   XZ=              0.0000   YZ=              0.0000

 \\#P ROCCSD(T)=(MaxCyc=150, Full)/Gen SCF=(maxcycle=400, vshift=200) P
 PMP2-0=-185.2824216\MP4SDQ=-185.2389116\CCSD=-185.1936627\CCSD(T)=-185
 Normal termination of Gaussian 16 at Fri May  4 13:59:47 2018.
