 Gaussian 16, Revision A.03,
 Gaussian 16:  ES64L-G16RevA.03 25-Dec-2016

 ----------------------------------------------------------------------
 #P ROCCSD(T)=(MaxCyc=150, Full)/Gen SCF=(maxcycle=400, vshift=200) Pse
 udo=Read Integral(NoXCTest) Pop=Regular MaxDisk=500GB Guess=Read
 ----------------------------------------------------------------------

 ---
 NiO
 ---
 Symbolic Z-matrix:
 Charge =  0 Multiplicity = 3

                         Standard orientation:
 ---------------------------------------------------------------------
 Center     Atomic      Atomic             Coordinates (Angstroms)
 Number     Number       Type             X           Y           Z
 ---------------------------------------------------------------------
      1         28           0        0.000000    0.000000    0.288889
      2          8           0        0.000000    0.000000   -1.011111
 ---------------------------------------------------------------------

 SCF Done:  E(ROHF) =  -183.960089561     A.U. after   20 cycles
 E2 =    -0.1312441577D+01 EUMP2 =    -0.18527253113797D+03
 CCSD(T)
 CCSD(T)= -0.18523782031D+03

 The electronic state is 3-SG.
 Alpha  occ. eigenvalues --   -5.17367  -3.53127  -3.41850  -3.41850  -1.30632
 Alpha  occ. eigenvalues --   -0.83410  -0.83410  -0.72245  -0.68644  -0.68644
 Alpha  occ. eigenvalues --   -0.45351  -0.45351  -0.35838
 Alpha virt. eigenvalues --   -0.01238   0.02502   0.02502   0.03393   0.03721
 Alpha virt. eigenvalues --    0.07607   0.07607   0.07846   0.08297   0.08297
 Alpha virt. eigenvalues --    0.09675   0.09675   0.12480   0.16492   0.22480

 Mulliken charges and spin densities:
               1          2
     1  Ni   0.733682   1.677541
     2  O   -0.733682   0.322459
 Sum of Mulliken charges =  -0.00000   2.00000

 Dipole moment (field-independent basis, Debye):
    X=              0.0000    Y=              0.0000    Z=              4.8100  Tot=              4.8100
 Quadrupole moment (field-independent basis, Debye-Ang):
   XX=            -18.6263   YY=            -18.6263   ZZ=            -18.9190
   XY=              0.0000   XZ=              0.0000   YZ=              0.0000

 \\#P ROCCSD(T)=(MaxCyc=150, Full)/Gen SCF=(maxcycle=400, vshift=200) P
 PMP2-0=-185.2725311\MP4SDQ=-185.2284147\CCSD=-185.181294\CCSD(T)=-185.
 Normal termination of Gaussian 16 at Fri Aug 17 12:14:21 2018.
