 Gaussian 16, Revision A.03,
 Gaussian 16:  ES64L-G16RevA.03 25-Dec-2016

 ----------------------------------------------------------------------
 #P ROCCSD(T)=(MaxCyc=150, Full)/Gen SCF=(maxcycle=400, vshift=200) Pse
 udo=Read Integral(NoXCTest) Pop=Regular MaxDisk=500GB Guess=Read
 ----------------------------------------------------------------------

 ---
 NiO
 ---
 Symbolic Z-matrix:
 Charge =  0 Multiplicity = 3

                         Standard orientation:
 ---------------------------------------------------------------------
 Center     Atomic      Atomic             Coordinates (Angstroms)
 Number     Number       Type             X           Y           Z
 ---------------------------------------------------------------------
      1         28           0        0.000000    0.000000    0.288889
      2          8           0        0.000000    0.000000   -1.011111
 ---------------------------------------------------------------------

 SCF Done:  E(ROHF) =  -183.956184986     A.U. after   27 cycles
 E2 =    -0.1254435384D+01 EUMP2 =    -0.18521062037019D+03
 CCSD(T)
 CCSD(T)= -0.18517822610D+03

 The electronic state is 3-SG.
 Alpha  occ. eigenvalues --   -5.17376  -3.53155  -3.41866  -3.41866  -1.30682
 Alpha  occ. eigenvalues --   -0.83406  -0.83406  -0.72252  -0.68641  -0.68641
 Alpha  occ. eigenvalues --   -0.45342  -0.45342  -0.35852
 Alpha virt. eigenvalues --   -0.01231   0.02855   0.02855   0.03820   0.03954
 Alpha virt. eigenvalues --    0.09592   0.09592   0.11547   0.12726   0.12726
 Alpha virt. eigenvalues --    0.12996   0.12996   0.14583   0.17995   0.26110

 Mulliken charges and spin densities:
               1          2
     1  Ni   0.952867   1.668594
     2  O   -0.952867   0.331406
 Sum of Mulliken charges =  -0.00000   2.00000

 Dipole moment (field-independent basis, Debye):
    X=              0.0000    Y=              0.0000    Z=              4.8231  Tot=              4.8231
 Quadrupole moment (field-independent basis, Debye-Ang):
   XX=            -18.6301   YY=            -18.6301   ZZ=            -18.9328
   XY=              0.0000   XZ=              0.0000   YZ=              0.0000

 \\#P ROCCSD(T)=(MaxCyc=150, Full)/Gen SCF=(maxcycle=400, vshift=200) P
 2-0=-185.2106204\MP4SDQ=-185.1723308\CCSD=-185.1243187\CCSD(T)=-185.17
 Normal termination of Gaussian 16 at Fri Aug 17 11:17:08 2018.
