 Gaussian 16, Revision A.03,
 Gaussian 16:  ES64L-G16RevA.03 25-Dec-2016

 ----------------------------------------------------------------------
 #P ROCCSD(T)=(MaxCyc=150, Full)/Gen SCF=(maxcycle=400, vshift=200) Pse
 udo=Read Integral(NoXCTest) Pop=Regular MaxDisk=500GB Guess=Read
 ----------------------------------------------------------------------

 ---
 NiO
 ---
 Symbolic Z-matrix:
 Charge =  0 Multiplicity = 3

                         Standard orientation:
 ---------------------------------------------------------------------
 Center     Atomic      Atomic             Coordinates (Angstroms)
 Number     Number       Type             X           Y           Z
 ---------------------------------------------------------------------
      1         28           0        0.000000    0.000000    0.288889
      2          8           0        0.000000    0.000000   -1.011111
 ---------------------------------------------------------------------

 SCF Done:  E(ROHF) =  -183.970055236     A.U. after   27 cycles
 E2 =    -0.1250182097D+01 EUMP2 =    -0.18522023733319D+03
 CCSD(T)
 CCSD(T)= -0.18519016065D+03

 The electronic state is 3-SG.
 Alpha  occ. eigenvalues --   -5.19827  -3.51535  -3.40213  -3.40213  -1.30651
 Alpha  occ. eigenvalues --   -0.83402  -0.83402  -0.72283  -0.68616  -0.68616
 Alpha  occ. eigenvalues --   -0.45320  -0.45320  -0.35864
 Alpha virt. eigenvalues --   -0.01252   0.02854   0.02854   0.03813   0.03952
 Alpha virt. eigenvalues --    0.09590   0.09590   0.11541   0.12725   0.12725
 Alpha virt. eigenvalues --    0.12998   0.12998   0.14589   0.17983   0.26113

 Mulliken charges and spin densities:
               1          2
     1  Ni   0.952197   1.669095
     2  O   -0.952197   0.330905
 Sum of Mulliken charges =  -0.00000   2.00000

 Dipole moment (field-independent basis, Debye):
    X=              0.0000    Y=              0.0000    Z=              4.8366  Tot=              4.8366
 Quadrupole moment (field-independent basis, Debye-Ang):
   XX=            -18.6145   YY=            -18.6145   ZZ=            -18.9194
   XY=              0.0000   XZ=              0.0000   YZ=              0.0000

 \\#P ROCCSD(T)=(MaxCyc=150, Full)/Gen SCF=(maxcycle=400, vshift=200) P
 PMP2-0=-185.2202373\MP4SDQ=-185.1825536\CCSD=-185.1364225\CCSD(T)=-185
 Normal termination of Gaussian 16 at Fri May  4 11:33:08 2018.
