 Gaussian 16, Revision A.03,
 Gaussian 16:  ES64L-G16RevA.03 25-Dec-2016

 ----------------------------------------------------------------------
 #P ROCCSD(T)=(maxcyc=150, Full, SaveAmplitudes, ReadAmplitudes)/Gen 5d
  7f SCF=(maxcycles=300) Integral(NoXCTest, DKHSO) MaxDisk=500GB Pop=Re
 gular Guess=Read
 ----------------------------------------------------------------------

 ---
 TiO
 ---
 Symbolic Z-matrix:
 Charge =  0 Multiplicity = 3

                         Standard orientation:
 ---------------------------------------------------------------------
 Center     Atomic      Atomic             Coordinates (Angstroms)
 Number     Number       Type             X           Y           Z
 ---------------------------------------------------------------------
      1         22           0        0.000000    0.000000    0.480000
      2          8           0        0.000000    0.000000   -1.320000
 ---------------------------------------------------------------------

 SCF Done:  E(ROHF) =  -927.685376883     A.U. after   21 cycles
 E2 =    -0.1208440155D+01 EUMP2 =    -0.92889381703799D+03
 CCSD(T)
 CCSD(T)= -0.92891939105D+03

 Unable to determine electronic state:  an orbital has unidentified symmetry.
 Alpha  occ. eigenvalues -- -184.50852 -21.77989 -20.49328 -17.94592 -17.94592
 Alpha  occ. eigenvalues --  -17.94436  -3.03621  -1.94492  -1.94492  -1.90914
 Alpha  occ. eigenvalues --   -1.12636  -0.50226  -0.43329  -0.39480  -0.39480
 Alpha  occ. eigenvalues --   -0.28757
 Alpha virt. eigenvalues --   -0.00478  -0.00478   0.00718   0.02092   0.03115
 Alpha virt. eigenvalues --    0.03115   0.03585   0.03704   0.03709   0.04317
 Alpha virt. eigenvalues --    0.04317   0.04665   0.07431   0.09952   0.10875

 Mulliken charges and spin densities:
               1          2
     1  Ti   1.018244   1.976819
     2  O   -1.018244   0.023181
 Sum of Mulliken charges =  -0.00000   2.00000

 Dipole moment (field-independent basis, Debye):
    X=              0.0000    Y=             -0.0000    Z=              6.0652  Tot=              6.0652
 Quadrupole moment (field-independent basis, Debye-Ang):
   XX=            -22.0366   YY=            -22.0366   ZZ=            -30.8091
   XY=             -0.0000   XZ=              0.0000   YZ=             -0.0000

 \\#P ROCCSD(T)=(maxcyc=150, Full, SaveAmplitudes, ReadAmplitudes)/Gen
 -928.893817\CCSD=-928.8641436\CCSD(T)=-928.919391\RMSD=8.581e-10\PG=C*
 Normal termination of Gaussian 16 at Wed Mar  7 04:34:08 2018.
