 Gaussian 16, Revision A.03,
 Gaussian 16:  ES64L-G16RevA.03 25-Dec-2016

 ----------------------------------------------------------------------
 #P ROCCSD(T)=(maxcyc=150, Full, SaveAmplitudes, ReadAmplitudes)/Gen 5d
  7f SCF=(maxcycles=300) Integral(NoXCTest) MaxDisk=500GB Pop=Regular P
 seudo=Read Guess=Read
 ----------------------------------------------------------------------

 ---
 TiO
 ---
 Symbolic Z-matrix:
 Charge =  0 Multiplicity = 3

                         Standard orientation:
 ---------------------------------------------------------------------
 Center     Atomic      Atomic             Coordinates (Angstroms)
 Number     Number       Type             X           Y           Z
 ---------------------------------------------------------------------
      1         22           0        0.000000    0.000000    0.320000
      2          8           0        0.000000    0.000000   -0.880000
 ---------------------------------------------------------------------

 SCF Done:  E(ROHF) =  -73.1433837536     A.U. after   20 cycles
 E2 =    -0.7564169625D+00 EUMP2 =    -0.73899800716095D+02
 CCSD(T)
 CCSD(T)= -0.73923580287D+02

 Unable to determine electronic state:  an orbital has unidentified symmetry.
 Alpha  occ. eigenvalues --   -2.95815  -2.01612  -1.80677  -1.80677  -1.12107
 Alpha  occ. eigenvalues --   -0.65696  -0.65696  -0.54541  -0.32875  -0.19964
 Alpha virt. eigenvalues --    0.01206   0.01206   0.01878   0.02593   0.03721
 Alpha virt. eigenvalues --    0.03721   0.03784   0.03826   0.03881   0.04791
 Alpha virt. eigenvalues --    0.04791   0.07237   0.10423   0.10870   0.11077

 Mulliken charges and spin densities:
               1          2
     1  Ti   0.734946   2.005338
     2  O   -0.734946  -0.005338
 Sum of Mulliken charges =  -0.00000   2.00000

 Dipole moment (field-independent basis, Debye):
    X=              0.0000    Y=              0.0000    Z=             -0.7236  Tot=              0.7236
 Quadrupole moment (field-independent basis, Debye-Ang):
   XX=            -22.5356   YY=            -22.5356   ZZ=            -26.5002
   XY=              0.0000   XZ=              0.0000   YZ=              0.0000

 \\#P ROCCSD(T)=(maxcyc=150, Full, SaveAmplitudes, ReadAmplitudes)/Gen
 -0=-73.8998007\CCSD=-73.8905759\CCSD(T)=-73.9235803\RMSD=2.767e-09\PG=
 Normal termination of Gaussian 16 at Fri Mar  9 16:54:49 2018.
