 Gaussian 16, Revision A.03,
 Gaussian 16:  ES64L-G16RevA.03 25-Dec-2016

 ----------------------------------------------------------------------
 #P ROCCSD(T)=(maxcyc=150, Full)/Gen 5d 7f SCF=(maxcycles=300) Integral
 (NoXCTest) MaxDisk=500GB Pop=Regular Pseudo=Read IOp(5/15=2) Guess=Rea
 d
 ----------------------------------------------------------------------

 ---
 ScH
 ---
 Symbolic Z-matrix:
 Charge =  0 Multiplicity = 1

                         Standard orientation:
 ---------------------------------------------------------------------
 Center     Atomic      Atomic             Coordinates (Angstroms)
 Number     Number       Type             X           Y           Z
 ---------------------------------------------------------------------
      1         21           0        0.000000    0.000000    0.054545
      2          1           0        0.000000    0.000000   -1.145455
 ---------------------------------------------------------------------

 SCF Done:  E(ROHF) =  -46.6711312678     A.U. after    8 cycles
 E2 =    -0.4455946753D+00 EUMP2 =    -0.47116725943144D+02
 CCSD(T)
 CCSD(T)= -0.47152378676D+02

 The electronic state is 1-SG.
 Alpha  occ. eigenvalues --   -2.67864  -1.62868  -1.58300  -1.58300  -0.46821
 Alpha  occ. eigenvalues --   -0.21477
 Alpha virt. eigenvalues --    0.01301   0.01301   0.01353   0.01673   0.02607
 Alpha virt. eigenvalues --    0.02607   0.02627   0.02640   0.02640   0.04056
 Alpha virt. eigenvalues --    0.04375   0.04375   0.07049   0.07422   0.07422

 Mulliken charges and spin densities:
               1          2
     1  Sc   0.308594   0.000000
     2  H   -0.308594   0.000000
 Sum of Mulliken charges =  -0.00000   0.00000

 Dipole moment (field-independent basis, Debye):
    X=              0.0000    Y=              0.0000    Z=              0.7228  Tot=              0.7228
 Quadrupole moment (field-independent basis, Debye-Ang):
   XX=            -23.6410   YY=            -23.6410   ZZ=            -22.6030
   XY=              0.0000   XZ=              0.0000   YZ=              0.0000

 P ROCCSD(T)=(maxcyc=150, Full)/Gen 5d 7f SCF=(maxcycles=300) Integral(
 PMP2-0=-47.1167259\MP4SDQ=-47.133792\CCSD=-47.1334207\CCSD(T)=-47.1523
 Normal termination of Gaussian 16 at Tue Feb 13 20:18:27 2018.
