 Gaussian 16, Revision A.03,
 Gaussian 16:  ES64L-G16RevA.03 25-Dec-2016

 ----------------------------------------------------------------------
 #P ROCCSD(T)=(maxcyc=150, Full, SaveAmplitudes, ReadAmplitudes)/Gen 5d
  7f SCF=(maxcycles=300) Integral(NoXCTest) MaxDisk=500GB Pop=Regular P
 seudo=Read Guess=Read
 ----------------------------------------------------------------------

 ---
 ScO
 ---
 Symbolic Z-matrix:
 Charge =  0 Multiplicity = 2

                         Standard orientation:
 ---------------------------------------------------------------------
 Center     Atomic      Atomic             Coordinates (Angstroms)
 Number     Number       Type             X           Y           Z
 ---------------------------------------------------------------------
      1         21           0        0.000000    0.000000    0.413793
      2          8           0        0.000000    0.000000   -1.086207
 ---------------------------------------------------------------------

 SCF Done:  E(ROHF) =  -62.0358527277     A.U. after   17 cycles
 E2 =    -0.7099436376D+00 EUMP2 =    -0.62745796365327D+02
 CCSD(T)
 CCSD(T)= -0.62770671044D+02

 The electronic state is 2-SG.
 Alpha  occ. eigenvalues --   -2.66246  -1.67608  -1.57133  -1.57133  -1.11416
 Alpha  occ. eigenvalues --   -0.47820  -0.47820  -0.44801  -0.22598
 Alpha virt. eigenvalues --    0.00570   0.00570   0.01780   0.02092   0.02763
 Alpha virt. eigenvalues --    0.02763   0.02994   0.02994   0.03113   0.03641
 Alpha virt. eigenvalues --    0.03641   0.05717   0.07635   0.07635   0.09254

 Mulliken charges and spin densities:
               1          2
     1  Sc   1.229822   0.999569
     2  O   -1.229822   0.000431
 Sum of Mulliken charges =  -0.00000   1.00000

 Dipole moment (field-independent basis, Debye):
    X=              0.0000    Y=              0.0000    Z=              2.7720  Tot=              2.7720
 Quadrupole moment (field-independent basis, Debye-Ang):
   XX=            -21.9719   YY=            -21.9719   ZZ=            -31.0889
   XY=              0.0000   XZ=              0.0000   YZ=              0.0000

 \\#P ROCCSD(T)=(maxcyc=150, Full, SaveAmplitudes, ReadAmplitudes)/Gen
 358527\PMP2-0=-62.7457964\CCSD=-62.7339191\CCSD(T)=-62.770671\RMSD=7.3
 Normal termination of Gaussian 16 at Wed Feb 21 02:16:39 2018.
