 Gaussian 16, Revision A.03,
 Gaussian 16:  ES64L-G16RevA.03 25-Dec-2016

 ----------------------------------------------------------------------
 #P ROCCSD(T)=(maxcyc=150, Full, SaveAmplitudes, ReadAmplitudes)/Gen 5d
  7f SCF=(maxcycles=300) Integral(NoXCTest) MaxDisk=500GB Pop=Regular P
 seudo=Read Guess=Read
 ----------------------------------------------------------------------

 ---
 TiO
 ---
 Symbolic Z-matrix:
 Charge =  0 Multiplicity = 3

                         Standard orientation:
 ---------------------------------------------------------------------
 Center     Atomic      Atomic             Coordinates (Angstroms)
 Number     Number       Type             X           Y           Z
 ---------------------------------------------------------------------
      1         22           0        0.000000    0.000000    0.400000
      2          8           0        0.000000    0.000000   -1.100000
 ---------------------------------------------------------------------

 SCF Done:  E(ROHF) =  -73.3960449467     A.U. after   19 cycles
 E2 =    -0.7735326060D+00 EUMP2 =    -0.74169577552666D+02
 CCSD(T)
 CCSD(T)= -0.74194153903D+02

 Unable to determine electronic state:  an orbital has unidentified symmetry.
 Alpha  occ. eigenvalues --   -2.99219  -1.89982  -1.87834  -1.87834  -1.17002
 Alpha  occ. eigenvalues --   -0.48953  -0.48953  -0.48522  -0.42406  -0.24844
 Alpha virt. eigenvalues --    0.00698   0.00698   0.01746   0.02357   0.03740
 Alpha virt. eigenvalues --    0.03801   0.03859   0.03859   0.04081   0.04189
 Alpha virt. eigenvalues --    0.04189   0.06069   0.09780   0.10458   0.11522

 Mulliken charges and spin densities:
               1          2
     1  Ti   0.993961   1.968271
     2  O   -0.993961   0.031729
 Sum of Mulliken charges =  -0.00000   2.00000

 Dipole moment (field-independent basis, Debye):
    X=              0.0000    Y=              0.0000    Z=              3.0861  Tot=              3.0861
 Quadrupole moment (field-independent basis, Debye-Ang):
   XX=            -21.5316   YY=            -21.5316   ZZ=            -28.3957
   XY=              0.0000   XZ=              0.0000   YZ=              0.0000

 \\#P ROCCSD(T)=(maxcyc=150, Full, SaveAmplitudes, ReadAmplitudes)/Gen
 -0=-74.1695776\CCSD=-74.1514551\CCSD(T)=-74.1941539\RMSD=2.403e-09\PG=
 Normal termination of Gaussian 16 at Sun Mar 11 05:23:57 2018.
