 Gaussian 16, Revision A.03,
 Gaussian 16:  ES64L-G16RevA.03 25-Dec-2016

 ----------------------------------------------------------------------
 #P ROHF/Gen 5d 7f SCF=(maxcycles=300) Integral(NoXCTest, DKHSO) MaxDis
 k=500GB Pop=Regular
 ----------------------------------------------------------------------

 ---
 TiO
 ---
 Symbolic Z-matrix:
 Charge =  0 Multiplicity = 3

                         Standard orientation:
 ---------------------------------------------------------------------
 Center     Atomic      Atomic             Coordinates (Angstroms)
 Number     Number       Type             X           Y           Z
 ---------------------------------------------------------------------
      1         22           0        0.000000    0.000000    0.426667
      2          8           0        0.000000    0.000000   -1.173333
 ---------------------------------------------------------------------

 SCF Done:  E(ROHF) =  -927.711646817     A.U. after   22 cycles

 Unable to determine electronic state:  an orbital has unidentified symmetry.
 Alpha  occ. eigenvalues -- -184.44679 -21.70360 -20.50780 -17.87797 -17.86617
 Alpha  occ. eigenvalues --  -17.86617  -2.93636  -1.87103  -1.81796  -1.81796
 Alpha  occ. eigenvalues --   -1.14966  -0.46066  -0.44753  -0.44753  -0.08127
 Alpha  occ. eigenvalues --   -0.07348
 Alpha virt. eigenvalues --    0.01212   0.01212   0.01825   0.02726   0.04851
 Alpha virt. eigenvalues --    0.04851   0.05033   0.05149   0.05234   0.05984
 Alpha virt. eigenvalues --    0.05984   0.07542   0.11611   0.11635   0.14212

 Mulliken charges and spin densities:
               1          2
     1  Ti   0.914916   2.000276
     2  O   -0.914916  -0.000276
 Sum of Mulliken charges =  -0.00000   2.00000

 Dipole moment (field-independent basis, Debye):
    X=              0.0000    Y=              0.0000    Z=              4.1608  Tot=              4.1608
 Quadrupole moment (field-independent basis, Debye-Ang):
   XX=            -21.9226   YY=            -21.9226   ZZ=            -29.5606
   XY=              0.0000   XZ=              0.0000   YZ=              0.0000

 Normal termination of Gaussian 16 at Tue Mar  6 16:37:20 2018.
