 Gaussian 16, Revision A.03,
 Gaussian 16:  ES64L-G16RevA.03 25-Dec-2016

 ----------------------------------------------------------------------
 #P ROCCSD(T)=(MaxCyc=150, Full)/Gen SCF=(maxcycle=400) Pseudo=Read Int
 egral(NoXCTest) Pop=Regular MaxDisk=500GB Guess=Read IOp(5/15=2)
 ----------------------------------------------------------------------

 ---
 NiO
 ---
 Symbolic Z-matrix:
 Charge =  0 Multiplicity = 3

                         Standard orientation:
 ---------------------------------------------------------------------
 Center     Atomic      Atomic             Coordinates (Angstroms)
 Number     Number       Type             X           Y           Z
 ---------------------------------------------------------------------
      1         28           0        0.000000    0.000000    0.377778
      2          8           0        0.000000    0.000000   -1.322222
 ---------------------------------------------------------------------

 SCF Done:  E(ROHF) =  -184.930179470     A.U. after   19 cycles
 E2 =    -0.1225966166D+01 EUMP2 =    -0.18615614563646D+03
 CCSD(T)
 CCSD(T)= -0.18618607297D+03

 The electronic state is 3-SG.
 Alpha  occ. eigenvalues --   -5.04802  -3.49876  -3.41428  -3.41428  -1.13479
 Alpha  occ. eigenvalues --   -0.80633  -0.80633  -0.74383  -0.71619  -0.71619
 Alpha  occ. eigenvalues --   -0.37832  -0.37832  -0.36782
 Alpha virt. eigenvalues --   -0.05769   0.01742   0.01742   0.01796   0.03886
 Alpha virt. eigenvalues --    0.06695   0.06695   0.07573   0.07953   0.07953
 Alpha virt. eigenvalues --    0.08991   0.08991   0.12652   0.14829   0.21564

 Mulliken charges and spin densities:
               1          2
     1  Ni   0.997683   1.928633
     2  O   -0.997683   0.071367
 Sum of Mulliken charges =  -0.00000   2.00000

 Dipole moment (field-independent basis, Debye):
    X=              0.0000    Y=              0.0000    Z=              8.2620  Tot=              8.2620
 Quadrupole moment (field-independent basis, Debye-Ang):
   XX=            -18.4776   YY=            -18.4776   ZZ=            -21.6630
   XY=              0.0000   XZ=              0.0000   YZ=              0.0000

 \\#P ROCCSD(T)=(MaxCyc=150, Full)/Gen SCF=(maxcycle=400) Pseudo=Read I
 MP2-0=-186.1561456\MP4SDQ=-186.1261178\CCSD=-186.1187999\CCSD(T)=-186.
 Normal termination of Gaussian 16 at Mon Mar 26 19:45:16 2018.
