 Gaussian 16, Revision A.03,
 Gaussian 16:  ES64L-G16RevA.03 25-Dec-2016

 ----------------------------------------------------------------------
 #P ROCCSD(T)=(MaxCyc=150, Full)/Gen SCF=(maxcycle=400) Pseudo=Read Int
 egral(NoXCTest) Pop=Regular MaxDisk=500GB Guess=Read IOp(5/15=2)
 ----------------------------------------------------------------------

 ---
 NiO
 ---
 Symbolic Z-matrix:
 Charge =  0 Multiplicity = 3

                         Standard orientation:
 ---------------------------------------------------------------------
 Center     Atomic      Atomic             Coordinates (Angstroms)
 Number     Number       Type             X           Y           Z
 ---------------------------------------------------------------------
      1         28           0        0.000000    0.000000    0.377778
      2          8           0        0.000000    0.000000   -1.322222
 ---------------------------------------------------------------------

 SCF Done:  E(ROHF) =  -184.926584176     A.U. after   22 cycles
 E2 =    -0.1168807424D+01 EUMP2 =    -0.18609539159910D+03
 CCSD(T)
 CCSD(T)= -0.18612732777D+03

 The electronic state is 3-SG.
 Alpha  occ. eigenvalues --   -5.04835  -3.49903  -3.41450  -3.41450  -1.13518
 Alpha  occ. eigenvalues --   -0.80629  -0.80629  -0.74383  -0.71613  -0.71613
 Alpha  occ. eigenvalues --   -0.37825  -0.37825  -0.36791
 Alpha virt. eigenvalues --   -0.05779   0.02062   0.02097   0.02097   0.04312
 Alpha virt. eigenvalues --    0.07759   0.07759   0.10526   0.12044   0.12044
 Alpha virt. eigenvalues --    0.13172   0.13172   0.15264   0.16034   0.26291

 Mulliken charges and spin densities:
               1          2
     1  Ni   1.072522   1.927776
     2  O   -1.072522   0.072224
 Sum of Mulliken charges =  -0.00000   2.00000

 Dipole moment (field-independent basis, Debye):
    X=              0.0000    Y=              0.0000    Z=              8.2766  Tot=              8.2766
 Quadrupole moment (field-independent basis, Debye-Ang):
   XX=            -18.4864   YY=            -18.4864   ZZ=            -21.6801
   XY=              0.0000   XZ=              0.0000   YZ=              0.0000

 \\#P ROCCSD(T)=(MaxCyc=150, Full)/Gen SCF=(maxcycle=400) Pseudo=Read I
 PMP2-0=-186.0953916\MP4SDQ=-186.071213\CCSD=-186.0627465\CCSD(T)=-186.
 Normal termination of Gaussian 16 at Mon Mar 26 17:12:41 2018.
