 Gaussian 16, Revision A.03,
 Gaussian 16:  ES64L-G16RevA.03 25-Dec-2016

 ----------------------------------------------------------------------
 #P ROCCSD(T)=(maxcyc=150, Full, SaveAmplitudes, ReadAmplitudes)/Gen 5d
  7f SCF=(maxcycles=300) Integral(NoXCTest, DKHSO) MaxDisk=500GB Pop=Re
 gular Guess=Read IOp(5/15=2)
 ----------------------------------------------------------------------

 ---
 MnO
 ---
 Symbolic Z-matrix:
 Charge =  0 Multiplicity = 6

                         Standard orientation:
 ---------------------------------------------------------------------
 Center     Atomic      Atomic             Coordinates (Angstroms)
 Number     Number       Type             X           Y           Z
 ---------------------------------------------------------------------
      1         25           0        0.000000    0.000000    0.290909
      2          8           0        0.000000    0.000000   -0.909091
 ---------------------------------------------------------------------

 SCF Done:  E(ROHF) =  -1231.90853602     A.U. after   30 cycles
 E2 =    -0.1384912415D+01 EUMP2 =    -0.12332934484304D+04
 CCSD(T)
 CCSD(T)= -0.12332797950D+04

 The electronic state is 6-SG.
 Alpha  occ. eigenvalues -- -242.48408 -29.58247 -24.93746 -24.93746 -24.92923
 Alpha  occ. eigenvalues --  -20.60346  -4.07064  -2.75349  -2.70660  -2.70660
 Alpha  occ. eigenvalues --   -1.28090  -0.78455  -0.78455  -0.65894  -0.59584
 Alpha  occ. eigenvalues --   -0.59584  -0.38119  -0.38119  -0.28891
 Alpha virt. eigenvalues --    0.02323   0.02651   0.02651   0.02966   0.07278
 Alpha virt. eigenvalues --    0.08154   0.08154   0.08822   0.08822   0.09469
 Alpha virt. eigenvalues --    0.09469   0.10893   0.11738   0.17418   0.25336

 Mulliken charges and spin densities:
               1          2
     1  Mn   0.630529   4.720695
     2  O   -0.630529   0.279305
 Sum of Mulliken charges =  -0.00000   5.00000

 Dipole moment (field-independent basis, Debye):
    X=             -0.0000    Y=             -0.0000    Z=              1.2867  Tot=              1.2867
 Quadrupole moment (field-independent basis, Debye-Ang):
   XX=            -20.5352   YY=            -20.5352   ZZ=            -22.7251
   XY=             -0.0000   XZ=              0.0000   YZ=              0.0000

 \\#P ROCCSD(T)=(maxcyc=150, Full, SaveAmplitudes, ReadAmplitudes)/Gen
 256302\CCSD=-1233.2405133\CCSD(T)=-1233.279795\RMSD=8.007e-09\PG=C*V [
 Normal termination of Gaussian 16 at Wed Mar  7 01:30:44 2018.
