 Gaussian 16, Revision A.03,
 Gaussian 16:  ES64L-G16RevA.03 25-Dec-2016

 ----------------------------------------------------------------------
 #P ROCCSD(T)=(MaxCyc=150, Full)/Gen SCF=(maxcycle=400) Pseudo=Read Int
 egral(NoXCTest) Pop=Regular MaxDisk=500GB Guess=Read IOp(5/15=2)
 ----------------------------------------------------------------------

 ---
 ZnO
 ---
 Symbolic Z-matrix:
 Charge =  0 Multiplicity = 1

                         Standard orientation:
 ---------------------------------------------------------------------
 Center     Atomic      Atomic             Coordinates (Angstroms)
 Number     Number       Type             X           Y           Z
 ---------------------------------------------------------------------
      1         30           0        0.000000    0.000000    0.315789
      2          8           0        0.000000    0.000000   -1.184211
 ---------------------------------------------------------------------

 SCF Done:  E(ROHF) =  -241.641485430     A.U. after   12 cycles
 E2 =    -0.1423080284D+01 EUMP2 =    -0.24306456571411D+03
 CCSD(T)
 CCSD(T)= -0.24300235558D+03

 The electronic state is 1-SG.
 Alpha  occ. eigenvalues --   -5.60574  -3.90422  -3.89609  -3.89609  -1.18563
 Alpha  occ. eigenvalues --   -0.83338  -0.83338  -0.81652  -0.81652  -0.78811
 Alpha  occ. eigenvalues --   -0.39674  -0.39674  -0.39459
 Alpha virt. eigenvalues --   -0.04493   0.02542   0.02559   0.02559   0.04200
 Alpha virt. eigenvalues --    0.08229   0.08229   0.12151   0.16506   0.17882
 Alpha virt. eigenvalues --    0.17946   0.17946   0.20527   0.20527   0.23026

 Mulliken charges and spin densities:
               1          2
     1  Zn   1.064956   0.000000
     2  O   -1.064956   0.000000
 Sum of Mulliken charges =  -0.00000   0.00000

 Dipole moment (field-independent basis, Debye):
    X=              0.0000    Y=              0.0000    Z=              7.0831  Tot=              7.0831
 Quadrupole moment (field-independent basis, Debye-Ang):
   XX=            -17.7885   YY=            -17.7885   ZZ=            -20.5934
   XY=              0.0000   XZ=              0.0000   YZ=              0.0000

 P ROCCSD(T)=(MaxCyc=150, Full)/Gen SCF=(maxcycle=400) Pseudo=Read Inte
 2-0=-243.0645657\MP4SDQ=-242.9977328\CCSD=-242.950813\CCSD(T)=-243.002
 Normal termination of Gaussian 16 at Tue Mar 27 13:56:33 2018.
