 Gaussian 16, Revision A.03,
 Gaussian 16:  ES64L-G16RevA.03 25-Dec-2016

 ----------------------------------------------------------------------
 #P ROCCSD(T)=(MaxCyc=150, Full)/Gen SCF=(maxcycle=400) Pseudo=Read Int
 egral(NoXCTest) Pop=Regular MaxDisk=500GB Guess=Read IOp(5/15=2)
 ----------------------------------------------------------------------

 ---
 ZnO
 ---
 Symbolic Z-matrix:
 Charge =  0 Multiplicity = 1

                         Standard orientation:
 ---------------------------------------------------------------------
 Center     Atomic      Atomic             Coordinates (Angstroms)
 Number     Number       Type             X           Y           Z
 ---------------------------------------------------------------------
      1         30           0        0.000000    0.000000    0.315789
      2          8           0        0.000000    0.000000   -1.184211
 ---------------------------------------------------------------------

 SCF Done:  E(ROHF) =  -241.638193631     A.U. after    1 cycles
 E2 =    -0.1354678768D+01 EUMP2 =    -0.24299287239948D+03
 CCSD(T)
 CCSD(T)= -0.24293314821D+03

 The electronic state is 1-SG.
 Alpha  occ. eigenvalues --   -5.60611  -3.90453  -3.89632  -3.89632  -1.18612
 Alpha  occ. eigenvalues --   -0.83345  -0.83345  -0.81654  -0.81654  -0.78825
 Alpha  occ. eigenvalues --   -0.39671  -0.39671  -0.39473
 Alpha virt. eigenvalues --   -0.04503   0.02774   0.02837   0.02837   0.04669
 Alpha virt. eigenvalues --    0.09469   0.09469   0.13498   0.17840   0.22004
 Alpha virt. eigenvalues --    0.23730   0.23730   0.24881   0.24881   0.30000

 Mulliken charges and spin densities:
               1          2
     1  Zn   1.229081   0.000000
     2  O   -1.229081   0.000000
 Sum of Mulliken charges =  -0.00000   0.00000

 Dipole moment (field-independent basis, Debye):
    X=              0.0000    Y=              0.0000    Z=              7.0954  Tot=              7.0954
 Quadrupole moment (field-independent basis, Debye-Ang):
   XX=            -17.8005   YY=            -17.8005   ZZ=            -20.5981
   XY=              0.0000   XZ=              0.0000   YZ=              0.0000

 P ROCCSD(T)=(MaxCyc=150, Full)/Gen SCF=(maxcycle=400) Pseudo=Read Inte
 2-0=-242.9928724\MP4SDQ=-242.9321259\CCSD=-242.8841848\CCSD(T)=-242.93
 Normal termination of Gaussian 16 at Tue Mar 27 11:36:13 2018.
