 Gaussian 16, Revision A.03,
 Gaussian 16:  ES64L-G16RevA.03 25-Dec-2016

 ----------------------------------------------------------------------
 #P ROCCSD(T)=(maxcyc=150, Full)/Gen 5d 7f SCF=(maxcycles=300) Integral
 (NoXCTest, DKHSO) MaxDisk=500GB Pop=Regular IOp(5/15=2) Guess=Read
 ----------------------------------------------------------------------

 ---
 ScH
 ---
 Symbolic Z-matrix:
 Charge =  0 Multiplicity = 1

                         Standard orientation:
 ---------------------------------------------------------------------
 Center     Atomic      Atomic             Coordinates (Angstroms)
 Number     Number       Type             X           Y           Z
 ---------------------------------------------------------------------
      1         21           0        0.000000    0.000000    0.100000
      2          1           0        0.000000    0.000000   -2.100000
 ---------------------------------------------------------------------

 SCF Done:  E(ROHF) =  -763.812091758     A.U. after   10 cycles
 E2 =    -0.7739008223D+00 EUMP2 =    -0.76458599258049D+03
 CCSD(T)
 CCSD(T)= -0.76462850202D+03

 The electronic state is 1-SG.
 Alpha  occ. eigenvalues -- -166.96002 -19.41700 -15.84041 -15.84041 -15.83199
 Alpha  occ. eigenvalues --   -2.72132  -1.69469  -1.69469  -1.69244  -0.35853
 Alpha  occ. eigenvalues --   -0.24656
 Alpha virt. eigenvalues --    0.00812   0.00812   0.01055   0.02071   0.02790
 Alpha virt. eigenvalues --    0.02790   0.02956   0.02956   0.03049   0.03542
 Alpha virt. eigenvalues --    0.03717   0.03717   0.06103   0.06103   0.07098

 Mulliken charges and spin densities:
               1          2
     1  Sc   0.266122   0.000000
     2  H   -0.266122   0.000000
 Sum of Mulliken charges =  -0.00000   0.00000

 Dipole moment (field-independent basis, Debye):
    X=              0.0000    Y=              0.0000    Z=              2.8852  Tot=              2.8852
 Quadrupole moment (field-independent basis, Debye-Ang):
   XX=            -23.3033   YY=            -23.3033   ZZ=            -30.7776
   XY=              0.0000   XZ=              0.0000   YZ=             -0.0000

 P ROCCSD(T)=(maxcyc=150, Full)/Gen 5d 7f SCF=(maxcycles=300) Integral(
 MP2-0=-764.5859926\MP4SDQ=-764.6057729\CCSD=-764.6072798\CCSD(T)=-764.
 Normal termination of Gaussian 16 at Mon Feb 12 21:44:11 2018.
