 Gaussian 16, Revision A.03,
 Gaussian 16:  ES64L-G16RevA.03 25-Dec-2016

 ----------------------------------------------------------------------
 #P ROCCSD(T)=(MaxCyc=150, Full)/Gen SCF=(maxcycle=400, vshift=200) Pse
 udo=Read Integral(NoXCTest) Pop=Regular MaxDisk=500GB Guess=Read IOp(5
 /15=2)
 ----------------------------------------------------------------------

 ---
 CoH
 ---
 Symbolic Z-matrix:
 Charge =  0 Multiplicity = 3

                         Standard orientation:
 ---------------------------------------------------------------------
 Center     Atomic      Atomic             Coordinates (Angstroms)
 Number     Number       Type             X           Y           Z
 ---------------------------------------------------------------------
      1         27           0        0.000000    0.000000    0.064286
      2          1           0        0.000000    0.000000   -1.735714
 ---------------------------------------------------------------------

 SCF Done:  E(ROHF) =  -145.414408903     A.U. after   78 cycles
 E2 =    -0.8501068939D+00 EUMP2 =    -0.14626451579653D+03
 CCSD(T)
 CCSD(T)= -0.14624620511D+03

 Unable to determine electronic state:  partially filled degenerate orbitals.
 Alpha  occ. eigenvalues --   -4.59074  -2.95087  -2.95086  -2.94993  -0.49924
 Alpha  occ. eigenvalues --   -0.49315  -0.45154  -0.44725  -0.44725  -0.32080
 Alpha virt. eigenvalues --   -0.00566   0.02590   0.02590   0.03541   0.04374
 Alpha virt. eigenvalues --    0.09330   0.09330   0.10081   0.11168   0.11211
 Alpha virt. eigenvalues --    0.11471   0.11471   0.11724   0.18361   0.23949

 Mulliken charges and spin densities:
               1          2
     1  Co   0.383727   1.991490
     2  H   -0.383727   0.008510
 Sum of Mulliken charges =  -0.00000   2.00000

 Dipole moment (field-independent basis, Debye):
    X=              0.0000    Y=              0.0000    Z=              4.9218  Tot=              4.9218
 Quadrupole moment (field-independent basis, Debye-Ang):
   XX=            -14.0082   YY=            -14.0082   ZZ=            -19.4863
   XY=              0.0000   XZ=              0.0000   YZ=              0.0000

 \\#P ROCCSD(T)=(MaxCyc=150, Full)/Gen SCF=(maxcycle=400, vshift=200) P
 \PMP2-0=-146.2645158\MP4SDQ=-146.2406173\CCSD=-146.2167784\CCSD(T)=-14
 Normal termination of Gaussian 16 at Sun Apr 22 02:27:30 2018.
