 Gaussian 16, Revision A.03,
 Gaussian 16:  ES64L-G16RevA.03 25-Dec-2016

 ----------------------------------------------------------------------
 #P ROCCSD(T)=(MaxCyc=150, Full)/Gen SCF=(maxcycle=400, vshift=200) Pse
 udo=Read Integral(NoXCTest) Pop=Regular MaxDisk=500GB Guess=Read IOp(5
 /15=2)
 ----------------------------------------------------------------------

 ---
 CoH
 ---
 Symbolic Z-matrix:
 Charge =  0 Multiplicity = 3

                         Standard orientation:
 ---------------------------------------------------------------------
 Center     Atomic      Atomic             Coordinates (Angstroms)
 Number     Number       Type             X           Y           Z
 ---------------------------------------------------------------------
      1         27           0        0.000000    0.000000    0.064286
      2          1           0        0.000000    0.000000   -1.735714
 ---------------------------------------------------------------------

 SCF Done:  E(ROHF) =  -145.415752963     A.U. after   36 cycles
 E2 =    -0.8911961535D+00 EUMP2 =    -0.14630694911668D+03
 CCSD(T)
 CCSD(T)= -0.14628701546D+03

 Unable to determine electronic state:  partially filled degenerate orbitals.
 Alpha  occ. eigenvalues --   -4.59078  -2.95083  -2.95083  -2.94990  -0.49929
 Alpha  occ. eigenvalues --   -0.49321  -0.45161  -0.44735  -0.44735  -0.32082
 Alpha virt. eigenvalues --   -0.00579   0.02336   0.02336   0.03205   0.04094
 Alpha virt. eigenvalues --    0.06976   0.07261   0.07275   0.07552   0.07552
 Alpha virt. eigenvalues --    0.08527   0.08527   0.10291   0.17182   0.19408

 Mulliken charges and spin densities:
               1          2
     1  Co   0.361570   1.997042
     2  H   -0.361570   0.002958
 Sum of Mulliken charges =  -0.00000   2.00000

 Dipole moment (field-independent basis, Debye):
    X=              0.0000    Y=              0.0000    Z=              4.9170  Tot=              4.9170
 Quadrupole moment (field-independent basis, Debye-Ang):
   XX=            -13.9955   YY=            -13.9955   ZZ=            -19.4953
   XY=              0.0000   XZ=              0.0000   YZ=              0.0000

 \\#P ROCCSD(T)=(MaxCyc=150, Full)/Gen SCF=(maxcycle=400, vshift=200) P
 MP2-0=-146.3069491\MP4SDQ=-146.2794594\CCSD=-146.2560741\CCSD(T)=-146.
 Normal termination of Gaussian 16 at Sun Apr 22 03:10:52 2018.
