 Gaussian 16, Revision A.03,
 Gaussian 16:  ES64L-G16RevA.03 25-Dec-2016

 ----------------------------------------------------------------------
 #P ROCCSD(T)=(MaxCyc=150, Full)/Gen SCF=(maxcycle=400, vshift=200) Pse
 udo=Read Integral(NoXCTest) Pop=Regular MaxDisk=500GB Guess=Read IOp(5
 /15=2)
 ----------------------------------------------------------------------

 ---
 CoH
 ---
 Symbolic Z-matrix:
 Charge =  0 Multiplicity = 3

                         Standard orientation:
 ---------------------------------------------------------------------
 Center     Atomic      Atomic             Coordinates (Angstroms)
 Number     Number       Type             X           Y           Z
 ---------------------------------------------------------------------
      1         27           0        0.000000    0.000000    0.064286
      2          1           0        0.000000    0.000000   -1.735714
 ---------------------------------------------------------------------

 SCF Done:  E(ROHF) =  -145.415948795     A.U. after   32 cycles
 E2 =    -0.9111337458D+00 EUMP2 =    -0.14632708254054D+03
 CCSD(T)
 CCSD(T)= -0.14630491373D+03

 Unable to determine electronic state:  partially filled degenerate orbitals.
 Alpha  occ. eigenvalues --   -4.59078  -2.95082  -2.95082  -2.94989  -0.49927
 Alpha  occ. eigenvalues --   -0.49319  -0.45166  -0.44740  -0.44740  -0.32082
 Alpha virt. eigenvalues --   -0.00607   0.02259   0.02259   0.02867   0.03546
 Alpha virt. eigenvalues --    0.06404   0.06566   0.06577   0.06881   0.06881
 Alpha virt. eigenvalues --    0.08132   0.08132   0.08948   0.13909   0.17072

 Mulliken charges and spin densities:
               1          2
     1  Co   0.333238   1.995666
     2  H   -0.333238   0.004334
 Sum of Mulliken charges =  -0.00000   2.00000

 Dipole moment (field-independent basis, Debye):
    X=              0.0000    Y=              0.0000    Z=              4.9169  Tot=              4.9169
 Quadrupole moment (field-independent basis, Debye-Ang):
   XX=            -13.9948   YY=            -13.9948   ZZ=            -19.4961
   XY=              0.0000   XZ=              0.0000   YZ=              0.0000

 \\#P ROCCSD(T)=(MaxCyc=150, Full)/Gen SCF=(maxcycle=400, vshift=200) P
 \PMP2-0=-146.3270825\MP4SDQ=-146.296478\CCSD=-146.2733998\CCSD(T)=-146
 Normal termination of Gaussian 16 at Sat Apr 28 23:55:46 2018.
