 Gaussian 16, Revision A.03,
 Gaussian 16:  ES64L-G16RevA.03 25-Dec-2016

 ----------------------------------------------------------------------
 #P ROCCSD(T)=(maxcyc=150, Full, SaveAmplitudes, ReadAmplitudes)/Gen 5d
  7f SCF=(maxcycles=300) Integral(NoXCTest) MaxDisk=500GB Pop=Regular P
 seudo=Read Guess=Read IOp(5/15=2)
 ----------------------------------------------------------------------

 ---
 MnO
 ---
 Symbolic Z-matrix:
 Charge =  0 Multiplicity = 6

                         Standard orientation:
 ---------------------------------------------------------------------
 Center     Atomic      Atomic             Coordinates (Angstroms)
 Number     Number       Type             X           Y           Z
 ---------------------------------------------------------------------
      1         25           0        0.000000    0.000000    0.412121
      2          8           0        0.000000    0.000000   -1.287879
 ---------------------------------------------------------------------

 SCF Done:  E(ROHF) =  -119.141297943     A.U. after   33 cycles
 E2 =    -0.8927183322D+00 EUMP2 =    -0.12003401627495D+03
 CCSD(T)
 CCSD(T)= -0.12006467119D+03

 The electronic state is 6-SG.
 Alpha  occ. eigenvalues --   -4.23182  -2.78724  -2.78724  -2.78057  -1.11178
 Alpha  occ. eigenvalues --   -0.64488  -0.64488  -0.63712  -0.63712  -0.59569
 Alpha  occ. eigenvalues --   -0.33900  -0.33900  -0.33862
 Alpha virt. eigenvalues --   -0.04609   0.01570   0.01570   0.01841   0.03846
 Alpha virt. eigenvalues --    0.06685   0.06685   0.08209   0.08439   0.08439
 Alpha virt. eigenvalues --    0.09604   0.09604   0.13204   0.14062   0.23012

 Mulliken charges and spin densities:
               1          2
     1  Mn   1.160051   4.893428
     2  O   -1.160051   0.106572
 Sum of Mulliken charges =  -0.00000   5.00000

 Dipole moment (field-independent basis, Debye):
    X=              0.0000    Y=              0.0000    Z=              9.1322  Tot=              9.1322
 Quadrupole moment (field-independent basis, Debye-Ang):
   XX=            -18.8903   YY=            -18.8903   ZZ=            -23.8991
   XY=              0.0000   XZ=              0.0000   YZ=              0.0000

 \\#P ROCCSD(T)=(maxcyc=150, Full, SaveAmplitudes, ReadAmplitudes)/Gen
 0320644\CCSD=-120.0234206\CCSD(T)=-120.0646712\RMSD=3.665e-09\PG=C*V [
 Normal termination of Gaussian 16 at Wed Mar 14 05:11:46 2018.
