 Gaussian 16, Revision A.03,
 Gaussian 16:  ES64L-G16RevA.03 25-Dec-2016

 ----------------------------------------------------------------------
 #P ROCCSD(T)=(MaxCyc=150, Full)/Gen SCF=(maxcycle=400) Pseudo=Read Int
 egral(NoXCTest) Pop=Regular MaxDisk=500GB Guess=Read IOp(5/15=2)
 ----------------------------------------------------------------------

 ---
 CuH
 ---
 Symbolic Z-matrix:
 Charge =  0 Multiplicity = 1

                         Standard orientation:
 ---------------------------------------------------------------------
 Center     Atomic      Atomic             Coordinates (Angstroms)
 Number     Number       Type             X           Y           Z
 ---------------------------------------------------------------------
      1         29           0        0.000000    0.000000    0.050000
      2          1           0        0.000000    0.000000   -1.450000
 ---------------------------------------------------------------------

 SCF Done:  E(ROHF) =  -197.120628301     A.U. after    7 cycles
 E2 =    -0.1155899350D+01 EUMP2 =    -0.19827652765120D+03
 CCSD(T)
 CCSD(T)= -0.19819611973D+03

 The electronic state is 1-SG.
 Alpha  occ. eigenvalues --   -5.25092  -3.51913  -3.51575  -3.51575  -0.50516
 Alpha  occ. eigenvalues --   -0.49810  -0.49810  -0.49636  -0.49636  -0.34005
 Alpha virt. eigenvalues --    0.00031   0.02553   0.02553   0.02975   0.04253
 Alpha virt. eigenvalues --    0.07729   0.08584   0.08584   0.12117   0.12117
 Alpha virt. eigenvalues --    0.12137   0.12473   0.12473   0.15176   0.18587

 Mulliken charges and spin densities:
               1          2
     1  Cu   0.309799   0.000000
     2  H   -0.309799   0.000000
 Sum of Mulliken charges =   0.00000   0.00000

 Dipole moment (field-independent basis, Debye):
    X=              0.0000    Y=              0.0000    Z=              3.9810  Tot=              3.9810
 Quadrupole moment (field-independent basis, Debye-Ang):
   XX=            -13.6310   YY=            -13.6310   ZZ=            -16.0130
   XY=              0.0000   XZ=              0.0000   YZ=              0.0000

 P ROCCSD(T)=(MaxCyc=150, Full)/Gen SCF=(maxcycle=400) Pseudo=Read Inte
 2-0=-198.2765277\MP4SDQ=-198.2267455\CCSD=-198.1566888\CCSD(T)=-198.19
 Normal termination of Gaussian 16 at Thu May  3 11:09:25 2018.
