 Gaussian 16, Revision A.03,
 Gaussian 16:  ES64L-G16RevA.03 25-Dec-2016

 ----------------------------------------------------------------------
 #P ROCCSD(T)=(maxcyc=150, Full)/Gen 5d 7f SCF=(maxcycles=300, NoVarAcc
 , VShift=300) MaxDisk=100GB Pop=Regular Pseudo=Read Guess=Read
 ----------------------------------------------------------------------

 --
 Sc
 --
 Symbolic Z-matrix:
 Charge =  0 Multiplicity = 2

                         Standard orientation:
 ---------------------------------------------------------------------
 Center     Atomic      Atomic             Coordinates (Angstroms)
 Number     Number       Type             X           Y           Z
 ---------------------------------------------------------------------
      1         21           0        0.000000    0.000000    0.000000
 ---------------------------------------------------------------------

 SCF Done:  E(ROHF) =  -46.1449950430     A.U. after   26 cycles
 E2 =    -0.3715915925D+00 EUMP2 =    -0.46516586635537D+02
 CCSD(T)
 CCSD(T)= -0.46553797254D+02

 Unable to determine electronic state:  an orbital has unidentified symmetry.
 Alpha  occ. eigenvalues --   -2.63137  -1.62548  -1.62548  -1.58685  -0.34702
 Alpha  occ. eigenvalues --   -0.21551
 Alpha virt. eigenvalues --    0.01237   0.01335   0.01335   0.02284   0.03912
 Alpha virt. eigenvalues --    0.03920   0.03920   0.03941   0.04006   0.04780
 Alpha virt. eigenvalues --    0.04907   0.04907   0.10130   0.10461   0.10461

 Mulliken charges and spin densities:
               1          2
     1  Sc  -0.000000   1.000000
 Sum of Mulliken charges =  -0.00000   1.00000

 Dipole moment (field-independent basis, Debye):
    X=              0.0000    Y=             -0.0000    Z=              0.0000  Tot=              0.0000
 Quadrupole moment (field-independent basis, Debye-Ang):
   XX=            -23.3093   YY=            -23.3093   ZZ=            -23.0137
   XY=             -0.0000   XZ=             -0.0000   YZ=             -0.0000

 1\1\GINC-C416-121\SP\ROCCSD(T)-Full\Gen\Sc1(2)\AANNABE\12-Mar-2018\0\\
 #P ROCCSD(T)=(maxcyc=150, Full)/Gen 5d 7f SCF=(maxcycles=300, NoVarAcc
 , VShift=300) MaxDisk=100GB Pop=Regular Pseudo=Read Guess=Read\\Sc\\0,
 2\Sc,0,0.,0.,0.\\Version=ES64L-G16RevA.03\HF=-46.144995\MP2=-46.516586
 6\MP3=-46.5388409\PUHF=-46.144995\PMP2-0=-46.5165866\MP4SDQ=-46.53882\
 CCSD=-46.5390656\CCSD(T)=-46.5537973\RMSD=6.588e-09\PG=OH [O(Sc1)]\\@

 Normal termination of Gaussian 16 at Mon Mar 12 10:50:22 2018.
