 Gaussian 16, Revision A.03,
 Gaussian 16:  ES64L-G16RevA.03 25-Dec-2016

 ----------------------------------------------------------------------
 #P ROCCSD(T)=(maxcyc=150, Full, SaveAmplitudes, ReadAmplitudes)/Gen 5d
  7f SCF=(maxcycles=300, VShift=400) Integral(NoXCTest) MaxDisk=500GB P
 op=Full Pseudo=Read Guess=Read IOp(5/15=2)
 ----------------------------------------------------------------------

 ---
 ScH
 ---
 Symbolic Z-matrix:
 Charge =  0 Multiplicity = 1

                         Standard orientation:
 ---------------------------------------------------------------------
 Center     Atomic      Atomic             Coordinates (Angstroms)
 Number     Number       Type             X           Y           Z
 ---------------------------------------------------------------------
      1         21           0        0.000000    0.000000    0.100000
      2          1           0        0.000000    0.000000   -2.100000
 ---------------------------------------------------------------------

 SCF Done:  E(ROHF) =  -46.6545438994     A.U. after   26 cycles
 E2 =    -0.4033637184D+00 EUMP2 =    -0.47057907617809D+02
 CCSD(T)
 CCSD(T)= -0.47108019587D+02

 The electronic state is 1-SG.
 Alpha  occ. eigenvalues --   -2.71661  -1.70007  -1.70007  -1.69806  -0.35695
 Alpha  occ. eigenvalues --   -0.24602
 Alpha virt. eigenvalues --    0.00853   0.00853   0.01016   0.02316   0.03586
 Alpha virt. eigenvalues --    0.03712   0.03712   0.03948   0.03948   0.04009
 Alpha virt. eigenvalues --    0.04167   0.04167   0.06770   0.06770   0.07963

 Mulliken charges and spin densities:
               1          2
     1  Sc   0.304811   0.000000
     2  H   -0.304811   0.000000
 Sum of Mulliken charges =  -0.00000   0.00000

 Dipole moment (field-independent basis, Debye):
    X=              0.0000    Y=              0.0000    Z=              2.9800  Tot=              2.9800
 Quadrupole moment (field-independent basis, Debye-Ang):
   XX=            -22.8887   YY=            -22.8887   ZZ=            -30.0966
   XY=              0.0000   XZ=              0.0000   YZ=              0.0000

 P ROCCSD(T)=(maxcyc=150, Full, SaveAmplitudes, ReadAmplitudes)/Gen 5d
 .087683\CCSD=-47.0882864\CCSD(T)=-47.1080196\RMSD=8.354e-09\PG=C*V [C*
 Normal termination of Gaussian 16 at Thu Apr 19 07:46:29 2018.
