 Gaussian 16, Revision A.03,
 Gaussian 16:  ES64L-G16RevA.03 25-Dec-2016

 ----------------------------------------------------------------------
 #P ROCCSD(T)=(MaxCyc=150, Full)/Gen SCF=(maxcycle=400) Pseudo=Read Int
 egral(NoXCTest) Pop=Regular MaxDisk=500GB
 ----------------------------------------------------------------------

 ---
 FeO
 ---
 Symbolic Z-matrix:
 Charge =  0 Multiplicity = 5

                         Standard orientation:
 ---------------------------------------------------------------------
 Center     Atomic      Atomic             Coordinates (Angstroms)
 Number     Number       Type             X           Y           Z
 ---------------------------------------------------------------------
      1         26           0        0.000000    0.000000    0.376471
      2          8           0        0.000000    0.000000   -1.223529
 ---------------------------------------------------------------------

 SCF Done:  E(ROHF) =  -138.843494698     A.U. after   34 cycles
 E2 =    -0.9952027026D+00 EUMP2 =    -0.13983869740029D+03
 CCSD(T)
 CCSD(T)= -0.13986468504D+03

 Unable to determine electronic state:  partially filled degenerate orbitals.
 Alpha  occ. eigenvalues --   -4.48819  -3.01086  -2.93971  -2.93971  -1.14905
 Alpha  occ. eigenvalues --   -0.68945  -0.68945  -0.64957  -0.64844  -0.60012
 Alpha  occ. eigenvalues --   -0.35514  -0.35063  -0.35063
 Alpha virt. eigenvalues --   -0.04476   0.01894   0.01894   0.02091   0.04020
 Alpha virt. eigenvalues --    0.07339   0.07339   0.08840   0.09609   0.09640
 Alpha virt. eigenvalues --    0.10746   0.10746   0.14203   0.14790   0.25133

 Mulliken charges and spin densities:
               1          2
     1  Fe   1.144416   3.843029
     2  O   -1.144416   0.156971
 Sum of Mulliken charges =  -0.00000   4.00000

 Dipole moment (field-independent basis, Debye):
    X=              0.0000    Y=              0.0000    Z=              8.6248  Tot=              8.6248
 Quadrupole moment (field-independent basis, Debye-Ang):
   XX=            -18.2552   YY=            -18.2552   ZZ=            -22.2697
   XY=              0.0000   XZ=              0.0000   YZ=              0.0000

 \\#P ROCCSD(T)=(MaxCyc=150, Full)/Gen SCF=(maxcycle=400) Pseudo=Read I
 95857\CCSD=-139.8174545\CCSD(T)=-139.864685\RMSD=5.381e-09\PG=C*V [C*(
 Normal termination of Gaussian 16 at Sun Mar 25 07:21:43 2018.
