 Gaussian 16, Revision A.03,
 Gaussian 16:  ES64L-G16RevA.03 25-Dec-2016

 ----------------------------------------------------------------------
 #P ROCCSD(T)=(MaxCyc=150, Full)/Gen SCF=(maxcycle=400) Pseudo=Read Int
 egral(NoXCTest) Pop=Regular MaxDisk=500GB
 ----------------------------------------------------------------------

 ---
 FeO
 ---
 Symbolic Z-matrix:
 Charge =  0 Multiplicity = 5

                         Standard orientation:
 ---------------------------------------------------------------------
 Center     Atomic      Atomic             Coordinates (Angstroms)
 Number     Number       Type             X           Y           Z
 ---------------------------------------------------------------------
      1         26           0        0.000000    0.000000    0.376471
      2          8           0        0.000000    0.000000   -1.223529
 ---------------------------------------------------------------------

 SCF Done:  E(ROHF) =  -138.846912055     A.U. after   31 cycles
 E2 =    -0.1042517782D+01 EUMP2 =    -0.13988942983678D+03
 CCSD(T)
 CCSD(T)= -0.13991292197D+03

 Unable to determine electronic state:  partially filled degenerate orbitals.
 Alpha  occ. eigenvalues --   -4.48810  -3.01064  -2.93954  -2.93954  -1.14844
 Alpha  occ. eigenvalues --   -0.68940  -0.68940  -0.64945  -0.64838  -0.60008
 Alpha  occ. eigenvalues --   -0.35501  -0.35065  -0.35065
 Alpha virt. eigenvalues --   -0.04471   0.01601   0.01601   0.01818   0.03578
 Alpha virt. eigenvalues --    0.06282   0.06282   0.06463   0.06473   0.06651
 Alpha virt. eigenvalues --    0.07960   0.07960   0.12009   0.13666   0.19197

 Mulliken charges and spin densities:
               1          2
     1  Fe   1.149382   3.854989
     2  O   -1.149382   0.145011
 Sum of Mulliken charges =  -0.00000   4.00000

 Dipole moment (field-independent basis, Debye):
    X=              0.0000    Y=              0.0000    Z=              8.6162  Tot=              8.6162
 Quadrupole moment (field-independent basis, Debye-Ang):
   XX=            -18.2536   YY=            -18.2536   ZZ=            -22.2480
   XY=              0.0000   XZ=              0.0000   YZ=              0.0000

 \\#P ROCCSD(T)=(MaxCyc=150, Full)/Gen SCF=(maxcycle=400) Pseudo=Read I
 50103\CCSD=-139.8634168\CCSD(T)=-139.912922\RMSD=6.153e-09\PG=C*V [C*(
 Normal termination of Gaussian 16 at Sun Mar 25 09:24:43 2018.
