 Gaussian 16, Revision A.03,
 Gaussian 16:  ES64L-G16RevA.03 25-Dec-2016

 ----------------------------------------------------------------------
 #P ROCCSD(T)=(MaxCyc=150, FrzINGC)/Gen SCF=(maxcycle=400, vshift=200)
 Integral(DKHSO, NoXCTest) Pop=Regular MaxDisk=500GB Guess=Read IOp(5/1
 5=2)
 ----------------------------------------------------------------------

 ---
 FeH
 ---
 Symbolic Z-matrix:
 Charge =  0 Multiplicity = 4

                         Standard orientation:
 ---------------------------------------------------------------------
 Center     Atomic      Atomic             Coordinates (Angstroms)
 Number     Number       Type             X           Y           Z
 ---------------------------------------------------------------------
      1         26           0        0.000000    0.000000    0.070370
      2          1           0        0.000000    0.000000   -1.829630
 ---------------------------------------------------------------------

 SCF Done:  E(ROHF) =  -1271.81317987     A.U. after   58 cycles
 E2 =    -0.7885611382D+00 EUMP2 =    -0.12726017410130D+04
 CCSD(T)
 CCSD(T)= -0.12725949196D+04

 Unable to determine electronic state:  an orbital has unidentified symmetry.
 Alpha  occ. eigenvalues -- -263.52565 -32.29601 -27.36572 -27.36572 -27.36354
 Alpha  occ. eigenvalues --   -4.19482  -2.74524  -2.74259  -2.74259  -0.48586
 Alpha  occ. eigenvalues --   -0.48586  -0.48419  -0.43446  -0.42427  -0.31444
 Alpha virt. eigenvalues --   -0.01094   0.02019   0.02019   0.02747   0.03014
 Alpha virt. eigenvalues --    0.05737   0.06120   0.06131   0.06371   0.06371
 Alpha virt. eigenvalues --    0.07285   0.07285   0.08973   0.12534   0.15533

 Mulliken charges and spin densities:
               1          2
     1  Fe   0.326172   2.997628
     2  H   -0.326172   0.002372
 Sum of Mulliken charges =  -0.00000   3.00000

 Dipole moment (field-independent basis, Debye):
    X=             -0.0000    Y=              0.0000    Z=              5.2526  Tot=              5.2526
 Quadrupole moment (field-independent basis, Debye-Ang):
   XX=            -15.5285   YY=            -15.5285   ZZ=            -20.1675
   XY=             -0.0000   XZ=             -0.0001   YZ=              0.0002

 \#P ROCCSD(T)=(MaxCyc=150, FrzINGC)/Gen SCF=(maxcycle=400, vshift=200)
 \PMP2-0=-1272.601741\MP4SDQ=-1272.5754239\CCSD=-1272.5681103\CCSD(T)=-
 Normal termination of Gaussian 16 at Thu Mar  8 19:29:43 2018.
