 Gaussian 16, Revision A.03,
 Gaussian 16:  ES64L-G16RevA.03 25-Dec-2016

 ----------------------------------------------------------------------
 #P ROCCSD(T)=(MaxCyc=150, Full)/Gen SCF=(maxcycle=400) Pseudo=Read Int
 egral(NoXCTest) Pop=Regular MaxDisk=500GB Guess=Read IOp(5/15=2)
 ----------------------------------------------------------------------

 ---
 CuO
 ---
 Symbolic Z-matrix:
 Charge =  0 Multiplicity = 2

                         Standard orientation:
 ---------------------------------------------------------------------
 Center     Atomic      Atomic             Coordinates (Angstroms)
 Number     Number       Type             X           Y           Z
 ---------------------------------------------------------------------
      1         29           0        0.000000    0.000000    0.302703
      2          8           0        0.000000    0.000000   -1.097297
 ---------------------------------------------------------------------

 SCF Done:  E(ROHF) =  -211.575306024     A.U. after   20 cycles
 E2 =    -0.1408016706D+01 EUMP2 =    -0.21298332272966D+03
 CCSD(T)
 CCSD(T)= -0.21290496742D+03

 Unable to determine electronic state:  an orbital has unidentified symmetry.
 Alpha  occ. eigenvalues --   -5.34430  -3.47933  -3.45350  -3.44298  -1.31847
 Alpha  occ. eigenvalues --   -0.69879  -0.66318  -0.62822  -0.57422  -0.57417
 Alpha  occ. eigenvalues --   -0.48704  -0.43335  -0.37040
 Alpha virt. eigenvalues --   -0.00189   0.02707   0.02844   0.03568   0.04895
 Alpha virt. eigenvalues --    0.09310   0.09695   0.12127   0.13737   0.13750
 Alpha virt. eigenvalues --    0.14100   0.14240   0.14494   0.19107   0.21837

 Mulliken charges and spin densities:
               1          2
     1  Cu   0.671644   0.094735
     2  O   -0.671644   0.905265
 Sum of Mulliken charges =  -0.00000   1.00000

 Dipole moment (field-independent basis, Debye):
    X=              0.0000    Y=              0.0000    Z=              4.3836  Tot=              4.3836
 Quadrupole moment (field-independent basis, Debye-Ang):
   XX=            -16.5747   YY=            -18.0506   ZZ=            -18.3788
   XY=              0.0000   XZ=              0.0000   YZ=              0.0000

 \\#P ROCCSD(T)=(MaxCyc=150, Full)/Gen SCF=(maxcycle=400) Pseudo=Read I
 833227\MP4SDQ=-212.9364943\CCSD=-212.8500907\CCSD(T)=-212.9049674\RMSD
 Normal termination of Gaussian 16 at Mon Mar 26 13:00:46 2018.
