 Gaussian 16, Revision A.03,
 Gaussian 16:  ES64L-G16RevA.03 25-Dec-2016

 ----------------------------------------------------------------------
 #P ROCCSD(T)=(MaxCyc=150, Full)/Gen SCF=(maxcycle=400) Pseudo=Read Int
 egral(NoXCTest) Pop=Regular MaxDisk=500GB Guess=Read IOp(5/15=2)
 ----------------------------------------------------------------------

 ---
 CuO
 ---
 Symbolic Z-matrix:
 Charge =  0 Multiplicity = 2

                         Standard orientation:
 ---------------------------------------------------------------------
 Center     Atomic      Atomic             Coordinates (Angstroms)
 Number     Number       Type             X           Y           Z
 ---------------------------------------------------------------------
      1         29           0        0.000000    0.000000    0.302703
      2          8           0        0.000000    0.000000   -1.097297
 ---------------------------------------------------------------------

 SCF Done:  E(ROHF) =  -211.570467643     A.U. after   27 cycles
 E2 =    -0.1343733611D+01 EUMP2 =    -0.21291420125329D+03
 CCSD(T)
 CCSD(T)= -0.21283867427D+03

 Unable to determine electronic state:  an orbital has unidentified symmetry.
 Alpha  occ. eigenvalues --   -5.34452  -3.47970  -3.45378  -3.44321  -1.31904
 Alpha  occ. eigenvalues --   -0.69873  -0.66312  -0.62838  -0.57419  -0.57414
 Alpha  occ. eigenvalues --   -0.48703  -0.43333  -0.37057
 Alpha virt. eigenvalues --   -0.00169   0.03058   0.03230   0.03954   0.05228
 Alpha virt. eigenvalues --    0.10810   0.11300   0.13683   0.19307   0.19987
 Alpha virt. eigenvalues --    0.20008   0.21279   0.21605   0.22183   0.26022

 Mulliken charges and spin densities:
               1          2
     1  Cu   0.871006   0.087030
     2  O   -0.871006   0.912970
 Sum of Mulliken charges =   0.00000   1.00000

 Dipole moment (field-independent basis, Debye):
    X=              0.0000    Y=              0.0000    Z=              4.3973  Tot=              4.3973
 Quadrupole moment (field-independent basis, Debye-Ang):
   XX=            -16.5835   YY=            -18.0754   ZZ=            -18.3698
   XY=              0.0000   XZ=              0.0000   YZ=              0.0000

 \\#P ROCCSD(T)=(MaxCyc=150, Full)/Gen SCF=(maxcycle=400) Pseudo=Read I
 9142013\MP4SDQ=-212.8739185\CCSD=-212.7864934\CCSD(T)=-212.8386743\RMS
 Normal termination of Gaussian 16 at Mon Mar 26 10:30:51 2018.
