 Gaussian 16, Revision A.03,
 Gaussian 16:  ES64L-G16RevA.03 25-Dec-2016

 ----------------------------------------------------------------------
 #P ROCCSD(T)=(maxcyc=150, Full, SaveAmplitudes, ReadAmplitudes)/Gen 5d
  7f SCF=(maxcycles=300) Integral(NoXCTest) MaxDisk=500GB Pop=Regular P
 seudo=Read Guess=Read
 ----------------------------------------------------------------------

 ---
 ScO
 ---
 Symbolic Z-matrix:
 Charge =  0 Multiplicity = 2

                         Standard orientation:
 ---------------------------------------------------------------------
 Center     Atomic      Atomic             Coordinates (Angstroms)
 Number     Number       Type             X           Y           Z
 ---------------------------------------------------------------------
      1         21           0        0.000000    0.000000    0.331034
      2          8           0        0.000000    0.000000   -0.868966
 ---------------------------------------------------------------------

 SCF Done:  E(ROHF) =  -61.6211735394     A.U. after   17 cycles
 E2 =    -0.6839216093D+00 EUMP2 =    -0.62305095148690D+02
 CCSD(T)
 CCSD(T)= -0.62333779423D+02

 The electronic state is 2-SG.
 Alpha  occ. eigenvalues --   -2.60976  -1.81963  -1.52287  -1.52287  -1.04526
 Alpha  occ. eigenvalues --   -0.63820  -0.63820  -0.47731  -0.17857
 Alpha virt. eigenvalues --    0.00983   0.00983   0.01642   0.02541   0.02824
 Alpha virt. eigenvalues --    0.02824   0.02859   0.02859   0.02885   0.04332
 Alpha virt. eigenvalues --    0.04332   0.06506   0.08147   0.08147   0.08379

 Mulliken charges and spin densities:
               1          2
     1  Sc   0.810444   1.018508
     2  O   -0.810444  -0.018508
 Sum of Mulliken charges =  -0.00000   1.00000

 Dipole moment (field-independent basis, Debye):
    X=              0.0000    Y=              0.0000    Z=             -1.2331  Tot=              1.2331
 Quadrupole moment (field-independent basis, Debye-Ang):
   XX=            -23.5206   YY=            -23.5206   ZZ=            -29.0676
   XY=              0.0000   XZ=              0.0000   YZ=              0.0000

 \\#P ROCCSD(T)=(maxcyc=150, Full, SaveAmplitudes, ReadAmplitudes)/Gen
 211735\PMP2-0=-62.3050951\CCSD=-62.3048759\CCSD(T)=-62.3337794\RMSD=5.
 Normal termination of Gaussian 16 at Tue Feb 20 22:17:39 2018.
