 Gaussian 16, Revision A.03,
 Gaussian 16:  ES64L-G16RevA.03 25-Dec-2016

 ----------------------------------------------------------------------
 #P ROCCSD(T)=(MaxCyc=150, Full)/Gen SCF=(maxcycle=400, vshift=200) Pse
 udo=Read Integral(NoXCTest) Pop=Regular MaxDisk=500GB Guess=Read IOp(5
 /15=2)
 ----------------------------------------------------------------------

 ---
 CuH
 ---
 Symbolic Z-matrix:
 Charge =  0 Multiplicity = 1

                         Standard orientation:
 ---------------------------------------------------------------------
 Center     Atomic      Atomic             Coordinates (Angstroms)
 Number     Number       Type             X           Y           Z
 ---------------------------------------------------------------------
      1         29           0        0.000000    0.000000    0.033333
      2          1           0        0.000000    0.000000   -0.966667
 ---------------------------------------------------------------------

 SCF Done:  E(ROHF) =  -195.753492742     A.U. after   12 cycles
 E2 =    -0.1157232846D+01 EUMP2 =    -0.19691072558762D+03
 CCSD(T)
 CCSD(T)= -0.19682422136D+03

 The electronic state is 1-SG.
 Alpha  occ. eigenvalues --   -5.29554  -3.48396  -3.44893  -3.44893  -0.63861
 Alpha  occ. eigenvalues --   -0.57274  -0.57274  -0.54482  -0.54482  -0.32442
 Alpha virt. eigenvalues --    0.01031   0.02661   0.02661   0.02835   0.05903
 Alpha virt. eigenvalues --    0.08759   0.08759   0.09197   0.13158   0.13158
 Alpha virt. eigenvalues --    0.13282   0.14067   0.14067   0.19863   0.23191

 Mulliken charges and spin densities:
               1          2
     1  Cu   0.106683   0.000000
     2  H   -0.106683   0.000000
 Sum of Mulliken charges =  -0.00000   0.00000

 Dipole moment (field-independent basis, Debye):
    X=              0.0000    Y=              0.0000    Z=              2.7989  Tot=              2.7989
 Quadrupole moment (field-independent basis, Debye-Ang):
   XX=            -14.5469   YY=            -14.5469   ZZ=            -14.3028
   XY=              0.0000   XZ=              0.0000   YZ=              0.0000

 P ROCCSD(T)=(MaxCyc=150, Full)/Gen SCF=(maxcycle=400, vshift=200) Pseu
 Normal termination of Gaussian 16 at Sun May  6 10:58:23 2018.
