 Gaussian 16, Revision A.03,
 Gaussian 16:  ES64L-G16RevA.03 25-Dec-2016

 ----------------------------------------------------------------------
 #P ROCCSD(T)=(MaxCyc=150, Full)/Gen SCF=(maxcycle=400, vshift=200) Pse
 udo=Read Integral(NoXCTest) Pop=Regular MaxDisk=500GB Guess=Read IOp(5
 /15=2)
 ----------------------------------------------------------------------

 ---
 CuH
 ---
 Symbolic Z-matrix:
 Charge =  0 Multiplicity = 1

                         Standard orientation:
 ---------------------------------------------------------------------
 Center     Atomic      Atomic             Coordinates (Angstroms)
 Number     Number       Type             X           Y           Z
 ---------------------------------------------------------------------
      1         29           0        0.000000    0.000000    0.033333
      2          1           0        0.000000    0.000000   -0.966667
 ---------------------------------------------------------------------

 SCF Done:  E(ROHF) =  -195.753809952     A.U. after   12 cycles
 E2 =    -0.1182421721D+01 EUMP2 =    -0.19693623167311D+03
 CCSD(T)
 CCSD(T)= -0.19684747551D+03

 The electronic state is 1-SG.
 Alpha  occ. eigenvalues --   -5.29554  -3.48395  -3.44893  -3.44893  -0.63860
 Alpha  occ. eigenvalues --   -0.57278  -0.57278  -0.54483  -0.54483  -0.32441
 Alpha virt. eigenvalues --    0.00894   0.02560   0.02572   0.02572   0.05024
 Alpha virt. eigenvalues --    0.07872   0.08387   0.08387   0.11745   0.11745
 Alpha virt. eigenvalues --    0.11938   0.12629   0.12629   0.14876   0.18939

 Mulliken charges and spin densities:
               1          2
     1  Cu   0.241892   0.000000
     2  H   -0.241892   0.000000
 Sum of Mulliken charges =  -0.00000   0.00000

 Dipole moment (field-independent basis, Debye):
    X=              0.0000    Y=              0.0000    Z=              2.7977  Tot=              2.7977
 Quadrupole moment (field-independent basis, Debye-Ang):
   XX=            -14.5455   YY=            -14.5455   ZZ=            -14.3049
   XY=              0.0000   XZ=              0.0000   YZ=              0.0000

 P ROCCSD(T)=(MaxCyc=150, Full)/Gen SCF=(maxcycle=400, vshift=200) Pseu
 81\PMP2-0=-196.9362317\MP4SDQ=-196.8756716\CCSD=-196.8067768\CCSD(T)=-
 Normal termination of Gaussian 16 at Sun May  6 12:08:10 2018.
