 Gaussian 16, Revision A.03,
 Gaussian 16:  ES64L-G16RevA.03 25-Dec-2016

 ----------------------------------------------------------------------
 #P ROCCSD(T)=(MaxCyc=150, Full)/Gen SCF=(maxcycle=400, vshift=200) Pse
 udo=Read Integral(NoXCTest) Pop=Regular MaxDisk=500GB Guess=Read IOp(5
 /15=2)
 ----------------------------------------------------------------------

 ---
 CuH
 ---
 Symbolic Z-matrix:
 Charge =  0 Multiplicity = 1

                         Standard orientation:
 ---------------------------------------------------------------------
 Center     Atomic      Atomic             Coordinates (Angstroms)
 Number     Number       Type             X           Y           Z
 ---------------------------------------------------------------------
      1         29           0        0.000000    0.000000    0.033333
      2          1           0        0.000000    0.000000   -0.966667
 ---------------------------------------------------------------------

 SCF Done:  E(ROHF) =  -195.750973504     A.U. after   19 cycles
 E2 =    -0.1105217953D+01 EUMP2 =    -0.19685619145631D+03
 CCSD(T)
 CCSD(T)= -0.19677113194D+03

 The electronic state is 1-SG.
 Alpha  occ. eigenvalues --   -5.29562  -3.48416  -3.44910  -3.44910  -0.63859
 Alpha  occ. eigenvalues --   -0.57269  -0.57269  -0.54477  -0.54477  -0.32443
 Alpha virt. eigenvalues --    0.01096   0.02931   0.02931   0.03112   0.06398
 Alpha virt. eigenvalues --    0.10015   0.10015   0.10084   0.17340   0.18904
 Alpha virt. eigenvalues --    0.18904   0.20596   0.20596   0.22321   0.26137

 Mulliken charges and spin densities:
               1          2
     1  Cu   0.242221   0.000000
     2  H   -0.242221   0.000000
 Sum of Mulliken charges =  -0.00000   0.00000

 Dipole moment (field-independent basis, Debye):
    X=              0.0000    Y=              0.0000    Z=              2.8044  Tot=              2.8044
 Quadrupole moment (field-independent basis, Debye-Ang):
   XX=            -14.5545   YY=            -14.5545   ZZ=            -14.2948
   XY=              0.0000   XZ=              0.0000   YZ=              0.0000

 P ROCCSD(T)=(MaxCyc=150, Full)/Gen SCF=(maxcycle=400, vshift=200) Pseu
 Normal termination of Gaussian 16 at Sun May  6 10:40:39 2018.
