 Gaussian 16, Revision A.03,
 Gaussian 16:  ES64L-G16RevA.03 25-Dec-2016

 ----------------------------------------------------------------------
 #P ROCCSD(T)=(maxcyc=150, Full)/Gen 5d 7f SCF=(maxcycles=300) Integral
 (NoXCTest) MaxDisk=500GB Pop=Regular Pseudo=Read IOp(5/15=2) Guess=Rea
 d
 ----------------------------------------------------------------------

 ---
 ScH
 ---
 Symbolic Z-matrix:
 Charge =  0 Multiplicity = 1

                         Standard orientation:
 ---------------------------------------------------------------------
 Center     Atomic      Atomic             Coordinates (Angstroms)
 Number     Number       Type             X           Y           Z
 ---------------------------------------------------------------------
      1         21           0        0.000000    0.000000    0.095455
      2          1           0        0.000000    0.000000   -2.004545
 ---------------------------------------------------------------------

 SCF Done:  E(ROHF) =  -46.7770683688     A.U. after   10 cycles
 E2 =    -0.4220817399D+00 EUMP2 =    -0.47199150108676D+02
 CCSD(T)
 CCSD(T)= -0.47246135759D+02

 The electronic state is 1-SG.
 Alpha  occ. eigenvalues --   -2.78185  -1.68568  -1.68568  -1.68342  -0.36981
 Alpha  occ. eigenvalues --   -0.24279
 Alpha virt. eigenvalues --    0.00881   0.00881   0.01177   0.02046   0.02806
 Alpha virt. eigenvalues --    0.02806   0.02949   0.02949   0.03018   0.03693
 Alpha virt. eigenvalues --    0.03787   0.03787   0.06347   0.06347   0.07267

 Mulliken charges and spin densities:
               1          2
     1  Sc   0.268190   0.000000
     2  H   -0.268190   0.000000
 Sum of Mulliken charges =  -0.00000   0.00000

 Dipole moment (field-independent basis, Debye):
    X=              0.0000    Y=              0.0000    Z=              2.4766  Tot=              2.4766
 Quadrupole moment (field-independent basis, Debye-Ang):
   XX=            -22.9071   YY=            -22.9071   ZZ=            -29.3997
   XY=              0.0000   XZ=              0.0000   YZ=              0.0000

 P ROCCSD(T)=(maxcyc=150, Full)/Gen 5d 7f SCF=(maxcycles=300) Integral(
 MP2-0=-47.1991501\MP4SDQ=-47.2251637\CCSD=-47.225834\CCSD(T)=-47.24613
 Normal termination of Gaussian 16 at Wed Feb 14 10:18:00 2018.
