 Gaussian 16, Revision A.03,
 Gaussian 16:  ES64L-G16RevA.03 25-Dec-2016

 ----------------------------------------------------------------------
 #P ROCCSD(T)=(maxcyc=150, Full, SaveAmplitudes, ReadAmplitudes)/Gen 5d
  7f SCF=(maxcycles=300, VShift=400) Integral(NoXCTest) MaxDisk=500GB P
 op=Full Pseudo=Read Guess=Read IOp(5/15=2)
 ----------------------------------------------------------------------

 ---
 MnH
 ---
 Symbolic Z-matrix:
 Charge =  0 Multiplicity = 7

                         Standard orientation:
 ---------------------------------------------------------------------
 Center     Atomic      Atomic             Coordinates (Angstroms)
 Number     Number       Type             X           Y           Z
 ---------------------------------------------------------------------
      1         25           0        0.000000    0.000000    0.053846
      2          1           0        0.000000    0.000000   -1.346154
 ---------------------------------------------------------------------

 SCF Done:  E(ROHF) =  -104.216399751     A.U. after   48 cycles
 E2 =    -0.5873136532D+00 EUMP2 =    -0.10480371340388D+03
 CCSD(T)
 CCSD(T)= -0.10482478724D+03

 The electronic state is 7-SG.
 Alpha  occ. eigenvalues --   -4.13419  -2.76299  -2.76045  -2.76045  -0.66177
 Alpha  occ. eigenvalues --   -0.64495  -0.64495  -0.64087  -0.64087  -0.41973
 Alpha  occ. eigenvalues --   -0.24780
 Alpha virt. eigenvalues --    0.01380   0.01380   0.02205   0.03234   0.05870
 Alpha virt. eigenvalues --    0.05870   0.08509   0.08509   0.08524   0.08958
 Alpha virt. eigenvalues --    0.08958   0.09224   0.14185   0.21099   0.22833

 Mulliken charges and spin densities:
               1          2
     1  Mn   0.447823   5.949100
     2  H   -0.447823   0.050900
 Sum of Mulliken charges =  -0.00000   6.00000

 Dipole moment (field-independent basis, Debye):
    X=              0.0000    Y=              0.0000    Z=              0.3010  Tot=              0.3010
 Quadrupole moment (field-independent basis, Debye-Ang):
   XX=            -15.9245   YY=            -15.9245   ZZ=            -25.4153
   XY=              0.0000   XZ=              0.0000   YZ=              0.0000

 \\#P ROCCSD(T)=(maxcyc=150, Full, SaveAmplitudes, ReadAmplitudes)/Gen
 4SDQ=-104.8075684\CCSD=-104.8083912\CCSD(T)=-104.8247872\RMSD=9.467e-0
 Normal termination of Gaussian 16 at Wed Apr  4 04:27:34 2018.
