 Gaussian 16, Revision A.03,
 Gaussian 16:  ES64L-G16RevA.03 25-Dec-2016

 ----------------------------------------------------------------------
 #P ROCCSD(T)=(maxcyc=150, Full, SaveAmplitudes, ReadAmplitudes)/Gen 5d
  7f SCF=(maxcycles=300) Integral(NoXCTest) MaxDisk=500GB Pop=Regular P
 seudo=Read Guess=Read
 ----------------------------------------------------------------------

 ---
 ScO
 ---
 Symbolic Z-matrix:
 Charge =  0 Multiplicity = 2

                         Standard orientation:
 ---------------------------------------------------------------------
 Center     Atomic      Atomic             Coordinates (Angstroms)
 Number     Number       Type             X           Y           Z
 ---------------------------------------------------------------------
      1         21           0        0.000000    0.000000    0.441379
      2          8           0        0.000000    0.000000   -1.158621
 ---------------------------------------------------------------------

 SCF Done:  E(ROHF) =  -62.0587195122     A.U. after   17 cycles
 E2 =    -0.7118950689D+00 EUMP2 =    -0.62770614581101D+02
 CCSD(T)
 CCSD(T)= -0.62796566823D+02

 The electronic state is 2-SG.
 Alpha  occ. eigenvalues --   -2.68981  -1.66020  -1.60086  -1.60086  -1.12470
 Alpha  occ. eigenvalues --   -0.44070  -0.44070  -0.43712  -0.24019
 Alpha virt. eigenvalues --    0.00275   0.00275   0.01542   0.02084   0.02733
 Alpha virt. eigenvalues --    0.02733   0.03028   0.03028   0.03281   0.03378
 Alpha virt. eigenvalues --    0.03378   0.05160   0.07269   0.07269   0.09311

 Mulliken charges and spin densities:
               1          2
     1  Sc   1.282929   0.993938
     2  O   -1.282929   0.006062
 Sum of Mulliken charges =  -0.00000   1.00000

 Dipole moment (field-independent basis, Debye):
    X=              0.0000    Y=              0.0000    Z=              3.8777  Tot=              3.8777
 Quadrupole moment (field-independent basis, Debye-Ang):
   XX=            -21.8465   YY=            -21.8465   ZZ=            -31.8810
   XY=              0.0000   XZ=              0.0000   YZ=              0.0000

 \\#P ROCCSD(T)=(maxcyc=150, Full, SaveAmplitudes, ReadAmplitudes)/Gen
 587195\PMP2-0=-62.7706146\CCSD=-62.7572516\CCSD(T)=-62.7965668\RMSD=1.
 Normal termination of Gaussian 16 at Wed Feb 21 03:39:34 2018.
