 Gaussian 16, Revision A.03,
 Gaussian 16:  ES64L-G16RevA.03 25-Dec-2016

 ----------------------------------------------------------------------
 #P ROCCSD(T)=(maxcyc=150, Full)/Gen 5d 7f SCF=(maxcycles=300) Integral
 (NoXCTest) MaxDisk=500GB Pop=Regular Pseudo=Read IOp(5/15=2) Guess=Rea
 d
 ----------------------------------------------------------------------

 ---
 ScH
 ---
 Symbolic Z-matrix:
 Charge =  0 Multiplicity = 1

                         Standard orientation:
 ---------------------------------------------------------------------
 Center     Atomic      Atomic             Coordinates (Angstroms)
 Number     Number       Type             X           Y           Z
 ---------------------------------------------------------------------
      1         21           0        0.000000    0.000000    0.059091
      2          1           0        0.000000    0.000000   -1.240909
 ---------------------------------------------------------------------

 SCF Done:  E(ROHF) =  -46.7272211946     A.U. after    8 cycles
 E2 =    -0.4395764470D+00 EUMP2 =    -0.47166797641594D+02
 CCSD(T)
 CCSD(T)= -0.47202954698D+02

 The electronic state is 1-SG.
 Alpha  occ. eigenvalues --   -2.66803  -1.63271  -1.60357  -1.60357  -0.46141
 Alpha  occ. eigenvalues --   -0.21780
 Alpha virt. eigenvalues --    0.01311   0.01311   0.01423   0.01672   0.02614
 Alpha virt. eigenvalues --    0.02614   0.02636   0.02636   0.02636   0.04127
 Alpha virt. eigenvalues --    0.04384   0.04384   0.07013   0.07435   0.07435

 Mulliken charges and spin densities:
               1          2
     1  Sc   0.331398   0.000000
     2  H   -0.331398   0.000000
 Sum of Mulliken charges =  -0.00000   0.00000

 Dipole moment (field-independent basis, Debye):
    X=              0.0000    Y=              0.0000    Z=              0.6503  Tot=              0.6503
 Quadrupole moment (field-independent basis, Debye-Ang):
   XX=            -23.4112   YY=            -23.4112   ZZ=            -23.0002
   XY=              0.0000   XZ=              0.0000   YZ=              0.0000

 P ROCCSD(T)=(maxcyc=150, Full)/Gen 5d 7f SCF=(maxcycles=300) Integral(
 PMP2-0=-47.1667976\MP4SDQ=-47.1844916\CCSD=-47.1840368\CCSD(T)=-47.202
 Normal termination of Gaussian 16 at Tue Feb 13 22:19:08 2018.
