 Gaussian 16, Revision A.03,
 Gaussian 16:  ES64L-G16RevA.03 25-Dec-2016

 ----------------------------------------------------------------------
 #P ROCCSD(T)=(maxcyc=150, Full, SaveAmplitudes, ReadAmplitudes)/Gen 5d
  7f SCF=(maxcycles=300) Integral(NoXCTest) MaxDisk=500GB Pop=Regular P
 seudo=Read Guess=Read
 ----------------------------------------------------------------------

 ---
 CrH
 ---
 Symbolic Z-matrix:
 Charge =  0 Multiplicity = 6

                         Standard orientation:
 ---------------------------------------------------------------------
 Center     Atomic      Atomic             Coordinates (Angstroms)
 Number     Number       Type             X           Y           Z
 ---------------------------------------------------------------------
      1         24           0        0.000000    0.000000    0.068000
      2          1           0        0.000000    0.000000   -1.632000
 ---------------------------------------------------------------------

 SCF Done:  E(ROHF) =  -86.8783939282     A.U. after   24 cycles
 E2 =    -0.5723973238D+00 EUMP2 =    -0.87450791252006D+02
 CCSD(T)
 CCSD(T)= -0.87497552275D+02

 The electronic state is 6-SG.
 Alpha  occ. eigenvalues --   -3.67458  -2.43904  -2.43904  -2.39157  -0.54658
 Alpha  occ. eigenvalues --   -0.54658  -0.51337  -0.51337  -0.40860  -0.26076
 Alpha virt. eigenvalues --    0.01208   0.01208   0.02005   0.02389   0.04619
 Alpha virt. eigenvalues --    0.04959   0.04959   0.05333   0.05333   0.05652
 Alpha virt. eigenvalues --    0.05652   0.06861   0.09589   0.12406   0.16749

 Mulliken charges and spin densities:
               1          2
     1  Cr   0.337355   4.980450
     2  H   -0.337355   0.019550
 Sum of Mulliken charges =  -0.00000   5.00000

 Dipole moment (field-independent basis, Debye):
    X=              0.0000    Y=              0.0000    Z=              2.0659  Tot=              2.0659
 Quadrupole moment (field-independent basis, Debye-Ang):
   XX=            -16.8978   YY=            -16.8978   ZZ=            -24.3206
   XY=              0.0000   XZ=              0.0000   YZ=              0.0000

 \\#P ROCCSD(T)=(maxcyc=150, Full, SaveAmplitudes, ReadAmplitudes)/Gen
 783939\PMP2-0=-87.4507913\CCSD=-87.4793969\CCSD(T)=-87.4975523\RMSD=3.
 Normal termination of Gaussian 16 at Mon Feb 26 08:41:56 2018.
