 Gaussian 16, Revision A.03,
 Gaussian 16:  ES64L-G16RevA.03 25-Dec-2016

 ----------------------------------------------------------------------
 #P ROCCSD(T)=(maxcyc=150, Full)/Gen 5d 7f SCF=(maxcycles=300) Integral
 (NoXCTest) MaxDisk=500GB Pop=Regular Pseudo=Read Guess=Read
 ----------------------------------------------------------------------

 ---
 CrH
 ---
 Symbolic Z-matrix:
 Charge =  0 Multiplicity = 6

                         Standard orientation:
 ---------------------------------------------------------------------
 Center     Atomic      Atomic             Coordinates (Angstroms)
 Number     Number       Type             X           Y           Z
 ---------------------------------------------------------------------
      1         24           0        0.000000    0.000000    0.048000
      2          1           0        0.000000    0.000000   -1.152000
 ---------------------------------------------------------------------

 SCF Done:  E(ROHF) =  -86.5978550454     A.U. after   34 cycles
 E2 =    -0.6088584978D+00 EUMP2 =    -0.87206713543217D+02
 CCSD(T)
 CCSD(T)= -0.87227073916D+02

 The electronic state is 6-SG.
 Alpha  occ. eigenvalues --   -3.63223  -2.38390  -2.38390  -2.37330  -0.46369
 Alpha  occ. eigenvalues --   -0.45169  -0.45169  -0.42461  -0.42461  -0.25229
 Alpha virt. eigenvalues --    0.01613   0.01705   0.01705   0.02287   0.04673
 Alpha virt. eigenvalues --    0.05489   0.05489   0.05522   0.05522   0.05851
 Alpha virt. eigenvalues --    0.05851   0.06010   0.09406   0.13309   0.16912

 Mulliken charges and spin densities:
               1          2
     1  Cr   0.341731   4.985537
     2  H   -0.341731   0.014463
 Sum of Mulliken charges =  -0.00000   5.00000

 Dipole moment (field-independent basis, Debye):
    X=              0.0000    Y=              0.0000    Z=              2.1409  Tot=              2.1409
 Quadrupole moment (field-independent basis, Debye-Ang):
   XX=            -16.6117   YY=            -16.6117   ZZ=            -18.6152
   XY=              0.0000   XZ=              0.0000   YZ=              0.0000

 \\#P ROCCSD(T)=(maxcyc=150, Full)/Gen 5d 7f SCF=(maxcycles=300) Integr
 2067135\MP4SDQ=-87.2045576\CCSD=-87.2057409\CCSD(T)=-87.2270739\RMSD=1
 Normal termination of Gaussian 16 at Mon Feb 12 20:25:46 2018.
