 Gaussian 16, Revision A.03,
 Gaussian 16:  ES64L-G16RevA.03 25-Dec-2016

 ----------------------------------------------------------------------
 #P ROCCSD(T)=(maxcyc=150, Full, SaveAmplitudes, ReadAmplitudes)/Gen 5d
  7f SCF=(maxcycles=300) Integral(NoXCTest) MaxDisk=500GB Pop=Regular P
 seudo=Read Guess=Read IOp(5/15=2)
 ----------------------------------------------------------------------

 ---
 ScO
 ---
 Symbolic Z-matrix:
 Charge =  0 Multiplicity = 2

                         Standard orientation:
 ---------------------------------------------------------------------
 Center     Atomic      Atomic             Coordinates (Angstroms)
 Number     Number       Type             X           Y           Z
 ---------------------------------------------------------------------
      1         21           0        0.000000    0.000000    0.496552
      2          8           0        0.000000    0.000000   -1.303448
 ---------------------------------------------------------------------

 SCF Done:  E(ROHF) =  -62.0662370132     A.U. after   18 cycles
 E2 =    -0.6913176954D+00 EUMP2 =    -0.62757554708539D+02
 CCSD(T)
 CCSD(T)= -0.62787682767D+02

 The electronic state is 2-SG.
 Alpha  occ. eigenvalues --   -2.72479  -1.67486  -1.66398  -1.66398  -1.10929
 Alpha  occ. eigenvalues --   -0.41473  -0.38461  -0.38461  -0.26548
 Alpha virt. eigenvalues --   -0.00418  -0.00418   0.01158   0.02134   0.03290
 Alpha virt. eigenvalues --    0.03290   0.03494   0.03494   0.04255   0.04255
 Alpha virt. eigenvalues --    0.04404   0.04988   0.07141   0.07141   0.10201

 Mulliken charges and spin densities:
               1          2
     1  Sc   1.237501   0.975726
     2  O   -1.237501   0.024274
 Sum of Mulliken charges =  -0.00000   1.00000

 Dipole moment (field-independent basis, Debye):
    X=              0.0000    Y=              0.0000    Z=              5.8423  Tot=              5.8423
 Quadrupole moment (field-independent basis, Debye-Ang):
   XX=            -21.8430   YY=            -21.8430   ZZ=            -33.1248
   XY=              0.0000   XZ=              0.0000   YZ=              0.0000

 \\#P ROCCSD(T)=(maxcyc=150, Full, SaveAmplitudes, ReadAmplitudes)/Gen
 \CCSD=-62.7436956\CCSD(T)=-62.7876828\RMSD=6.181e-09\PG=C*V [C*(O1Sc1)
 Normal termination of Gaussian 16 at Wed Feb 21 05:30:17 2018.
