 Gaussian 16, Revision A.03,
 Gaussian 16:  ES64L-G16RevA.03 25-Dec-2016

 ----------------------------------------------------------------------
 #P ROCCSD(T)=(MaxCyc=150, Full)/Gen SCF=(maxcycle=400) Pseudo=Read Int
 egral(NoXCTest) Pop=Regular MaxDisk=500GB Guess=Read IOp(5/15=2)
 ----------------------------------------------------------------------

 ---
 ZnO
 ---
 Symbolic Z-matrix:
 Charge =  0 Multiplicity = 1

                         Standard orientation:
 ---------------------------------------------------------------------
 Center     Atomic      Atomic             Coordinates (Angstroms)
 Number     Number       Type             X           Y           Z
 ---------------------------------------------------------------------
      1         30           0        0.000000    0.000000    0.252632
      2          8           0        0.000000    0.000000   -0.947368
 ---------------------------------------------------------------------

 SCF Done:  E(ROHF) =  -241.286587206     A.U. after    1 cycles
 E2 =    -0.1365088123D+01 EUMP2 =    -0.24265167532873D+03
 CCSD(T)
 CCSD(T)= -0.24257266016D+03

 The electronic state is 1-SG.
 Alpha  occ. eigenvalues --   -5.99836  -4.10279  -4.04836  -4.04836  -1.36285
 Alpha  occ. eigenvalues --   -0.95253  -0.95253  -0.86353  -0.86353  -0.82744
 Alpha  occ. eigenvalues --   -0.46329  -0.46329  -0.37842
 Alpha virt. eigenvalues --   -0.00704   0.03250   0.03250   0.04066   0.04494
 Alpha virt. eigenvalues --    0.10892   0.10892   0.13515   0.19399   0.21019
 Alpha virt. eigenvalues --    0.21702   0.21702   0.25750   0.25750   0.30927

 Mulliken charges and spin densities:
               1          2
     1  Zn   1.261254   0.000000
     2  O   -1.261254   0.000000
 Sum of Mulliken charges =   0.00000   0.00000

 Dipole moment (field-independent basis, Debye):
    X=              0.0000    Y=              0.0000    Z=              4.3449  Tot=              4.3449
 Quadrupole moment (field-independent basis, Debye-Ang):
   XX=            -18.1633   YY=            -18.1633   ZZ=            -19.1759
   XY=              0.0000   XZ=              0.0000   YZ=              0.0000

 P ROCCSD(T)=(MaxCyc=150, Full)/Gen SCF=(maxcycle=400) Pseudo=Read Inte
 2-0=-242.6516753\MP4SDQ=-242.5731171\CCSD=-242.5252277\CCSD(T)=-242.57
 Normal termination of Gaussian 16 at Wed Mar 28 00:16:17 2018.
