 Gaussian 16, Revision A.03,
 Gaussian 16:  ES64L-G16RevA.03 25-Dec-2016

 ----------------------------------------------------------------------
 #P ROCCSD(T)=(MaxCyc=150, Full)/Gen SCF=(maxcycle=400) Pseudo=Read Int
 egral(NoXCTest) Pop=Regular MaxDisk=500GB Guess=Read IOp(5/15=2)
 ----------------------------------------------------------------------

 ---
 ZnO
 ---
 Symbolic Z-matrix:
 Charge =  0 Multiplicity = 1

                         Standard orientation:
 ---------------------------------------------------------------------
 Center     Atomic      Atomic             Coordinates (Angstroms)
 Number     Number       Type             X           Y           Z
 ---------------------------------------------------------------------
      1         30           0        0.000000    0.000000    0.252632
      2          8           0        0.000000    0.000000   -0.947368
 ---------------------------------------------------------------------

 SCF Done:  E(ROHF) =  -241.290964198     A.U. after   11 cycles
 E2 =    -0.1433842971D+01 EUMP2 =    -0.24272480716842D+03
 CCSD(T)
 CCSD(T)= -0.24264368027D+03

 The electronic state is 1-SG.
 Alpha  occ. eigenvalues --   -5.99816  -4.10243  -4.04814  -4.04814  -1.36216
 Alpha  occ. eigenvalues --   -0.95248  -0.95248  -0.86343  -0.86343  -0.82722
 Alpha  occ. eigenvalues --   -0.46341  -0.46341  -0.37819
 Alpha virt. eigenvalues --   -0.00705   0.02912   0.02912   0.03640   0.04234
 Alpha virt. eigenvalues --    0.09474   0.09474   0.12347   0.17376   0.18051
 Alpha virt. eigenvalues --    0.18591   0.18591   0.18673   0.18673   0.23177

 Mulliken charges and spin densities:
               1          2
     1  Zn   1.008172   0.000000
     2  O   -1.008172   0.000000
 Sum of Mulliken charges =  -0.00000   0.00000

 Dipole moment (field-independent basis, Debye):
    X=              0.0000    Y=              0.0000    Z=              4.3310  Tot=              4.3310
 Quadrupole moment (field-independent basis, Debye-Ang):
   XX=            -18.1556   YY=            -18.1556   ZZ=            -19.1652
   XY=              0.0000   XZ=              0.0000   YZ=              0.0000

 P ROCCSD(T)=(MaxCyc=150, Full)/Gen SCF=(maxcycle=400) Pseudo=Read Inte
 2-0=-242.7248072\MP4SDQ=-242.6404786\CCSD=-242.5936574\CCSD(T)=-242.64
 Normal termination of Gaussian 16 at Wed Mar 28 02:32:13 2018.
