 Gaussian 16, Revision A.03,
 Gaussian 16:  ES64L-G16RevA.03 25-Dec-2016

 ----------------------------------------------------------------------
 #P ROCCSD(T)=(maxcyc=150, Full, SaveAmplitudes, ReadAmplitudes)/Gen 5d
  7f SCF=(maxcycles=300, VShift=400) Integral(NoXCTest) MaxDisk=500GB P
 op=Full Pseudo=Read Guess=Read IOp(5/15=2)
 ----------------------------------------------------------------------

 ---
 CrO
 ---
 Symbolic Z-matrix:
 Charge =  0 Multiplicity = 5

                         Standard orientation:
 ---------------------------------------------------------------------
 Center     Atomic      Atomic             Coordinates (Angstroms)
 Number     Number       Type             X           Y           Z
 ---------------------------------------------------------------------
      1         24           0        0.000000    0.000000    0.425000
      2          8           0        0.000000    0.000000   -1.275000
 ---------------------------------------------------------------------

 SCF Done:  E(ROHF) =  -102.125188638     A.U. after   84 cycles
 E2 =    -0.8628172155D+00 EUMP2 =    -0.10298800585331D+03
 CCSD(T)
 CCSD(T)= -0.10303530713D+03

 Unable to determine electronic state:  an orbital has unidentified symmetry.
 Alpha  occ. eigenvalues --   -3.76112  -2.46944  -2.42112  -2.41150  -1.11753
 Alpha  occ. eigenvalues --   -0.56677  -0.56580  -0.54852  -0.50761  -0.36392
 Alpha  occ. eigenvalues --   -0.33792  -0.32753
 Alpha virt. eigenvalues --   -0.03460   0.00955   0.01582   0.02199   0.03726
 Alpha virt. eigenvalues --    0.05209   0.06428   0.07503   0.07516   0.07670
 Alpha virt. eigenvalues --    0.08348   0.08837   0.13233   0.14806   0.15711

 Mulliken charges and spin densities:
               1          2
     1  Cr   1.178112   3.904966
     2  O   -1.178112   0.095034
 Sum of Mulliken charges =   0.00000   4.00000

 Dipole moment (field-independent basis, Debye):
    X=              0.0000    Y=              0.0000    Z=              8.9373  Tot=              8.9373
 Quadrupole moment (field-independent basis, Debye-Ang):
   XX=            -19.4796   YY=            -18.5202   ZZ=            -23.0700
   XY=              0.0000   XZ=              0.0000   YZ=              0.0000

 \\#P ROCCSD(T)=(maxcyc=150, Full, SaveAmplitudes, ReadAmplitudes)/Gen
 978458\CCSD=-102.9850195\CCSD(T)=-103.0353071\RMSD=9.301e-09\PG=C*V [C
 Normal termination of Gaussian 16 at Wed Apr  4 08:00:56 2018.
