 Gaussian 16, Revision A.03,
 Gaussian 16:  ES64L-G16RevA.03 25-Dec-2016

 ----------------------------------------------------------------------
 #P ROCCSD(T)=(maxcyc=150, Full)/Gen 5d 7f SCF=(maxcycles=300) Integral
 (NoXCTest) MaxDisk=500GB Pop=Regular Pseudo=Read IOp(5/15=2) Guess=Rea
 d
 ----------------------------------------------------------------------

 ---
 ScH
 ---
 Symbolic Z-matrix:
 Charge =  0 Multiplicity = 1

                         Standard orientation:
 ---------------------------------------------------------------------
 Center     Atomic      Atomic             Coordinates (Angstroms)
 Number     Number       Type             X           Y           Z
 ---------------------------------------------------------------------
      1         21           0        0.000000    0.000000    0.095455
      2          1           0        0.000000    0.000000   -2.004545
 ---------------------------------------------------------------------

 SCF Done:  E(ROHF) =  -46.7767965453     A.U. after   12 cycles
 E2 =    -0.4077704500D+00 EUMP2 =    -0.47184566995276D+02
 CCSD(T)
 CCSD(T)= -0.47233218718D+02

 The electronic state is 1-SG.
 Alpha  occ. eigenvalues --   -2.78211  -1.68582  -1.68582  -1.68356  -0.36982
 Alpha  occ. eigenvalues --   -0.24279
 Alpha virt. eigenvalues --    0.00916   0.00916   0.01251   0.02282   0.03586
 Alpha virt. eigenvalues --    0.03742   0.03742   0.03935   0.03935   0.04234
 Alpha virt. eigenvalues --    0.04234   0.04246   0.07024   0.07024   0.08133

 Mulliken charges and spin densities:
               1          2
     1  Sc   0.309536   0.000000
     2  H   -0.309536   0.000000
 Sum of Mulliken charges =  -0.00000   0.00000

 Dipole moment (field-independent basis, Debye):
    X=              0.0000    Y=              0.0000    Z=              2.4736  Tot=              2.4736
 Quadrupole moment (field-independent basis, Debye-Ang):
   XX=            -22.9136   YY=            -22.9136   ZZ=            -29.4045
   XY=              0.0000   XZ=              0.0000   YZ=              0.0000

 P ROCCSD(T)=(maxcyc=150, Full)/Gen 5d 7f SCF=(maxcycles=300) Integral(
 MP2-0=-47.184567\MP4SDQ=-47.2135465\CCSD=-47.2139601\CCSD(T)=-47.23321
 Normal termination of Gaussian 16 at Wed Feb 14 09:54:36 2018.
