 Gaussian 16, Revision A.03,
 Gaussian 16:  ES64L-G16RevA.03 25-Dec-2016

 ----------------------------------------------------------------------
 #P ROCCSD(T)=(maxcyc=150, Full, SaveAmplitudes, ReadAmplitudes)/Gen 5d
  7f SCF=(maxcycles=300) Integral(NoXCTest) MaxDisk=500GB Pop=Regular P
 seudo=Read Guess=Read IOp(5/15=2)
 ----------------------------------------------------------------------

 ---
 ScO
 ---
 Symbolic Z-matrix:
 Charge =  0 Multiplicity = 2

                         Standard orientation:
 ---------------------------------------------------------------------
 Center     Atomic      Atomic             Coordinates (Angstroms)
 Number     Number       Type             X           Y           Z
 ---------------------------------------------------------------------
      1         21           0        0.000000    0.000000    0.386207
      2          8           0        0.000000    0.000000   -1.013793
 ---------------------------------------------------------------------

 SCF Done:  E(ROHF) =  -61.8605787001     A.U. after   16 cycles
 E2 =    -0.6716327329D+00 EUMP2 =    -0.62532211433016D+02
 CCSD(T)
 CCSD(T)= -0.62559616186D+02

 The electronic state is 2-SG.
 Alpha  occ. eigenvalues --   -2.58203  -1.71919  -1.55346  -1.55346  -1.09504
 Alpha  occ. eigenvalues --   -0.52563  -0.52563  -0.46187  -0.20983
 Alpha virt. eigenvalues --    0.00838   0.00838   0.02199   0.02236   0.03748
 Alpha virt. eigenvalues --    0.03748   0.03834   0.03834   0.03990   0.04557
 Alpha virt. eigenvalues --    0.04557   0.07105   0.10394   0.10394   0.10974

 Mulliken charges and spin densities:
               1          2
     1  Sc   1.253637   0.988273
     2  O   -1.253637   0.011727
 Sum of Mulliken charges =  -0.00000   1.00000

 Dipole moment (field-independent basis, Debye):
    X=              0.0000    Y=              0.0000    Z=              1.4911  Tot=              1.4911
 Quadrupole moment (field-independent basis, Debye-Ang):
   XX=            -22.3191   YY=            -22.3191   ZZ=            -30.3505
   XY=              0.0000   XZ=              0.0000   YZ=              0.0000

 \\#P ROCCSD(T)=(maxcyc=150, Full, SaveAmplitudes, ReadAmplitudes)/Gen
 33\CCSD=-62.5271091\CCSD(T)=-62.5596162\RMSD=4.455e-09\PG=C*V [C*(O1Sc
 Normal termination of Gaussian 16 at Tue Feb 20 23:54:06 2018.
