 Gaussian 16, Revision A.03,
 Gaussian 16:  ES64L-G16RevA.03 25-Dec-2016

 ----------------------------------------------------------------------
 #P ROCCSD(T)=(MaxCyc=150, Full)/Gen SCF=(maxcycle=400, vshift=200) Pse
 udo=Read Integral(NoXCTest) Pop=Regular MaxDisk=500GB
 ----------------------------------------------------------------------

 ---
 ZnO
 ---
 Symbolic Z-matrix:
 Charge =  0 Multiplicity = 1

                         Standard orientation:
 ---------------------------------------------------------------------
 Center     Atomic      Atomic             Coordinates (Angstroms)
 Number     Number       Type             X           Y           Z
 ---------------------------------------------------------------------
      1         30           0        0.000000    0.000000    0.336842
      2          8           0        0.000000    0.000000   -1.263158
 ---------------------------------------------------------------------

 SCF Done:  E(ROHF) =  -240.893456070     A.U. after   19 cycles
 E2 =    -0.1330800494D+01 EUMP2 =    -0.24222425656378D+03
 CCSD(T)
 CCSD(T)= -0.24216315054D+03

 The electronic state is 1-SG.
 Alpha  occ. eigenvalues --   -5.90448  -3.98578  -3.98218  -3.98218  -1.18039
 Alpha  occ. eigenvalues --   -0.83311  -0.83311  -0.82328  -0.82328  -0.80002
 Alpha  occ. eigenvalues --   -0.39534  -0.39534  -0.38497
 Alpha virt. eigenvalues --   -0.04735   0.02670   0.02706   0.02706   0.04695
 Alpha virt. eigenvalues --    0.09110   0.09110   0.13386   0.17680   0.22098
 Alpha virt. eigenvalues --    0.23796   0.23796   0.24712   0.24712   0.30040

 Mulliken charges and spin densities:
               1          2
     1  Zn   1.132907   0.000000
     2  O   -1.132907   0.000000
 Sum of Mulliken charges =  -0.00000   0.00000

 Dipole moment (field-independent basis, Debye):
    X=              0.0000    Y=              0.0000    Z=              7.2278  Tot=              7.2278
 Quadrupole moment (field-independent basis, Debye-Ang):
   XX=            -18.0266   YY=            -18.0266   ZZ=            -21.3005
   XY=              0.0000   XZ=              0.0000   YZ=              0.0000

 P ROCCSD(T)=(MaxCyc=150, Full)/Gen SCF=(maxcycle=400, vshift=200) Pseu
 42566\MP4SDQ=-242.1607541\CCSD=-242.1148891\CCSD(T)=-242.1631505\RMSD=
 Normal termination of Gaussian 16 at Fri Apr 13 19:19:31 2018.
