 Gaussian 16, Revision A.03,
 Gaussian 16:  ES64L-G16RevA.03 25-Dec-2016

 ----------------------------------------------------------------------
 #P ROCCSD(T)=(MaxCyc=150, Full)/Gen SCF=(maxcycle=400, vshift=200) Pse
 udo=Read Integral(NoXCTest) Pop=Regular MaxDisk=500GB
 ----------------------------------------------------------------------

 ---
 ZnO
 ---
 Symbolic Z-matrix:
 Charge =  0 Multiplicity = 1

                         Standard orientation:
 ---------------------------------------------------------------------
 Center     Atomic      Atomic             Coordinates (Angstroms)
 Number     Number       Type             X           Y           Z
 ---------------------------------------------------------------------
      1         30           0        0.000000    0.000000    0.336842
      2          8           0        0.000000    0.000000   -1.263158
 ---------------------------------------------------------------------

 SCF Done:  E(ROHF) =  -240.896244685     A.U. after   19 cycles
 E2 =    -0.1399208082D+01 EUMP2 =    -0.24229545276716D+03
 CCSD(T)
 CCSD(T)= -0.24223184688D+03

 The electronic state is 1-SG.
 Alpha  occ. eigenvalues --   -5.90433  -3.98552  -3.98201  -3.98201  -1.17994
 Alpha  occ. eigenvalues --   -0.83298  -0.83298  -0.82320  -0.82320  -0.79984
 Alpha  occ. eigenvalues --   -0.39542  -0.39542  -0.38481
 Alpha virt. eigenvalues --   -0.04723   0.02443   0.02450   0.02450   0.04214
 Alpha virt. eigenvalues --    0.07923   0.07923   0.12004   0.16508   0.17731
 Alpha virt. eigenvalues --    0.17812   0.17812   0.20620   0.20620   0.23125

 Mulliken charges and spin densities:
               1          2
     1  Zn   1.017370   0.000000
     2  O   -1.017370   0.000000
 Sum of Mulliken charges =  -0.00000   0.00000

 Dipole moment (field-independent basis, Debye):
    X=              0.0000    Y=              0.0000    Z=              7.2143  Tot=              7.2143
 Quadrupole moment (field-independent basis, Debye-Ang):
   XX=            -18.0138   YY=            -18.0138   ZZ=            -21.2982
   XY=              0.0000   XZ=              0.0000   YZ=              0.0000

 P ROCCSD(T)=(MaxCyc=150, Full)/Gen SCF=(maxcycle=400, vshift=200) Pseu
 54528\MP4SDQ=-242.2258844\CCSD=-242.1809978\CCSD(T)=-242.2318469\RMSD=
 Normal termination of Gaussian 16 at Fri Apr 13 21:37:42 2018.
