 Gaussian 16, Revision A.03,
 Gaussian 16:  ES64L-G16RevA.03 25-Dec-2016

 ----------------------------------------------------------------------
 #P ROCCSD(T)=(maxcyc=150, Full, SaveAmplitudes, ReadAmplitudes)/Gen 5d
  7f SCF=(maxcycles=300) Integral(NoXCTest) MaxDisk=500GB Pop=Regular P
 seudo=Read Guess=Read
 ----------------------------------------------------------------------

 ---
 MnO
 ---
 Symbolic Z-matrix:
 Charge =  0 Multiplicity = 6

                         Standard orientation:
 ---------------------------------------------------------------------
 Center     Atomic      Atomic             Coordinates (Angstroms)
 Number     Number       Type             X           Y           Z
 ---------------------------------------------------------------------
      1         25           0        0.000000    0.000000    0.339394
      2          8           0        0.000000    0.000000   -1.060606
 ---------------------------------------------------------------------

 SCF Done:  E(ROHF) =  -119.065639736     A.U. after   23 cycles
 E2 =    -0.9688479471D+00 EUMP2 =    -0.12003448768318D+03
 CCSD(T)
 CCSD(T)= -0.12004344252D+03

 The electronic state is 6-SG.
 Alpha  occ. eigenvalues --   -4.22937  -2.78431  -2.78431  -2.76264  -1.23540
 Alpha  occ. eigenvalues --   -0.70637  -0.70637  -0.63302  -0.63302  -0.55850
 Alpha  occ. eigenvalues --   -0.41122  -0.41122  -0.31661
 Alpha virt. eigenvalues --    0.01124   0.01983   0.01983   0.03077   0.04781
 Alpha virt. eigenvalues --    0.05920   0.05920   0.05931   0.05931   0.06636
 Alpha virt. eigenvalues --    0.07153   0.07153   0.11549   0.14271   0.17857

 Mulliken charges and spin densities:
               1          2
     1  Mn   1.110876   4.789099
     2  O   -1.110876   0.210901
 Sum of Mulliken charges =  -0.00000   5.00000

 Dipole moment (field-independent basis, Debye):
    X=              0.0000    Y=              0.0000    Z=              4.1953  Tot=              4.1953
 Quadrupole moment (field-independent basis, Debye-Ang):
   XX=            -19.7052   YY=            -19.7052   ZZ=            -23.2310
   XY=              0.0000   XZ=              0.0000   YZ=              0.0000

 \\#P ROCCSD(T)=(maxcyc=150, Full, SaveAmplitudes, ReadAmplitudes)/Gen
 9.0656397\PMP2-0=-120.0344877\CCSD=-120.0002326\CCSD(T)=-120.0434425\R
 Normal termination of Gaussian 16 at Tue Mar 13 15:55:07 2018.
