 Gaussian 16, Revision A.03,
 Gaussian 16:  ES64L-G16RevA.03 25-Dec-2016

 ----------------------------------------------------------------------
 #P ROCCSD(T)=(maxcyc=150, FrzINGC)/Gen 5d 7f SCF=(maxcycles=300, NoVar
 Acc, VShift=300) Integral(NoXCTest, DKHSO) MaxDisk=100GB Pop=Regular I
 Op(5/15=2)
 ----------------------------------------------------------------------

 --
 Cr
 --
 Symbolic Z-matrix:
 Charge =  0 Multiplicity = 7

                         Standard orientation:
 ---------------------------------------------------------------------
 Center     Atomic      Atomic             Coordinates (Angstroms)
 Number     Number       Type             X           Y           Z
 ---------------------------------------------------------------------
      1         24           0        0.000000    0.000000    0.000000
 ---------------------------------------------------------------------

 SCF Done:  E(ROHF) =  -1049.66418227     A.U. after   59 cycles
 E2 =    -0.5403378298D+00 EUMP2 =    -0.10502045200974D+04
 CCSD(T)
 CCSD(T)= -0.10502079357D+04

 Unable to determine electronic state:  an orbital has unidentified symmetry.
 Alpha  occ. eigenvalues -- -222.03473 -26.60968 -22.24617 -22.24617 -22.24617
 Alpha  occ. eigenvalues --   -3.51415  -2.27176  -2.27176  -2.27176  -0.36688
 Alpha  occ. eigenvalues --   -0.36688  -0.36688  -0.36688  -0.36688  -0.22622
 Alpha virt. eigenvalues --    0.01714   0.01714   0.01714   0.02416   0.05524
 Alpha virt. eigenvalues --    0.05524   0.05524   0.05524   0.05524   0.05931
 Alpha virt. eigenvalues --    0.05931   0.05931   0.12723   0.17961   0.17961

 Mulliken charges and spin densities:
               1          2
     1  Cr  -0.000000   6.000000
 Sum of Mulliken charges =  -0.00000   6.00000

 Dipole moment (field-independent basis, Debye):
    X=              0.0000    Y=             -0.0000    Z=              0.0000  Tot=              0.0000
 Quadrupole moment (field-independent basis, Debye-Ang):
   XX=            -16.7522   YY=            -16.7522   ZZ=            -16.7522
   XY=             -0.0000   XZ=             -0.0000   YZ=              0.0000

 P ROCCSD(T)=(maxcyc=150, FrzINGC)/Gen 5d 7f SCF=(maxcycles=300, NoVarA
 Normal termination of Gaussian 16 at Mon Mar 12 15:24:51 2018.
