 Gaussian 16, Revision A.03,
 Gaussian 16:  ES64L-G16RevA.03 25-Dec-2016

 ----------------------------------------------------------------------
 #P ROCCSD(T)=(maxcyc=150, Full, SaveAmplitudes, ReadAmplitudes)/Gen 5d
  7f SCF=(maxcycles=300, VShift=400) Integral(NoXCTest) MaxDisk=500GB P
 op=Full Pseudo=Read Guess=Read IOp(5/15=2)
 ----------------------------------------------------------------------

 ---
 MnO
 ---
 Symbolic Z-matrix:
 Charge =  0 Multiplicity = 6

                         Standard orientation:
 ---------------------------------------------------------------------
 Center     Atomic      Atomic             Coordinates (Angstroms)
 Number     Number       Type             X           Y           Z
 ---------------------------------------------------------------------
      1         25           0        0.000000    0.000000    0.436364
      2          8           0        0.000000    0.000000   -1.363636
 ---------------------------------------------------------------------

 SCF Done:  E(ROHF) =  -118.897201704     A.U. after   71 cycles
 E2 =    -0.8929944738D+00 EUMP2 =    -0.11979019617763D+03
 CCSD(T)
 CCSD(T)= -0.11981895184D+03

 The electronic state is 6-SG.
 Alpha  occ. eigenvalues --   -4.14781  -2.77197  -2.77197  -2.76665  -1.10664
 Alpha  occ. eigenvalues --   -0.65319  -0.65319  -0.65019  -0.65019  -0.61817
 Alpha  occ. eigenvalues --   -0.33821  -0.33821  -0.33210
 Alpha virt. eigenvalues --   -0.05157   0.01407   0.01407   0.01661   0.03826
 Alpha virt. eigenvalues --    0.06456   0.06456   0.08196   0.08358   0.08358
 Alpha virt. eigenvalues --    0.09464   0.09464   0.12870   0.14024   0.22723

 Mulliken charges and spin densities:
               1          2
     1  Mn   1.124204   4.927263
     2  O   -1.124204   0.072737
 Sum of Mulliken charges =  -0.00000   5.00000

 Dipole moment (field-independent basis, Debye):
    X=              0.0000    Y=              0.0000    Z=              9.4216  Tot=              9.4216
 Quadrupole moment (field-independent basis, Debye-Ang):
   XX=            -19.0500   YY=            -19.0500   ZZ=            -24.6184
   XY=              0.0000   XZ=              0.0000   YZ=              0.0000

 \\#P ROCCSD(T)=(maxcyc=150, Full, SaveAmplitudes, ReadAmplitudes)/Gen
 SDQ=-119.7880872\CCSD=-119.7779465\CCSD(T)=-119.8189518\RMSD=9.343e-09
 Normal termination of Gaussian 16 at Thu Apr 19 08:18:43 2018.
