 Gaussian 16, Revision A.03,
 Gaussian 16:  ES64L-G16RevA.03 25-Dec-2016

 ----------------------------------------------------------------------
 #P ROCCSD(T)=(maxcyc=150, Full)/Gen 5d 7f SCF=(maxcycles=300) Integral
 (NoXCTest) MaxDisk=500GB Pop=Regular Pseudo=Read IOp(5/15=2) Guess=Rea
 d
 ----------------------------------------------------------------------

 ---
 ScH
 ---
 Symbolic Z-matrix:
 Charge =  0 Multiplicity = 1

                         Standard orientation:
 ---------------------------------------------------------------------
 Center     Atomic      Atomic             Coordinates (Angstroms)
 Number     Number       Type             X           Y           Z
 ---------------------------------------------------------------------
      1         21           0        0.000000    0.000000    0.081818
      2          1           0        0.000000    0.000000   -1.718182
 ---------------------------------------------------------------------

 SCF Done:  E(ROHF) =  -46.7903896252     A.U. after   11 cycles
 E2 =    -0.4251881248D+00 EUMP2 =    -0.47215577750082D+02
 CCSD(T)
 CCSD(T)= -0.47259307587D+02

 The electronic state is 1-SG.
 Alpha  occ. eigenvalues --   -2.75579  -1.66110  -1.66110  -1.66067  -0.40598
 Alpha  occ. eigenvalues --   -0.23253
 Alpha virt. eigenvalues --    0.01079   0.01079   0.01496   0.01946   0.02846
 Alpha virt. eigenvalues --    0.02846   0.02925   0.02925   0.02951   0.04035
 Alpha virt. eigenvalues --    0.04035   0.04222   0.07194   0.07194   0.07752

 Mulliken charges and spin densities:
               1          2
     1  Sc   0.276436   0.000000
     2  H   -0.276436   0.000000
 Sum of Mulliken charges =   0.00000   0.00000

 Dipole moment (field-independent basis, Debye):
    X=              0.0000    Y=              0.0000    Z=              1.4212  Tot=              1.4212
 Quadrupole moment (field-independent basis, Debye-Ang):
   XX=            -23.0486   YY=            -23.0486   ZZ=            -26.9684
   XY=              0.0000   XZ=              0.0000   YZ=              0.0000

 P ROCCSD(T)=(maxcyc=150, Full)/Gen 5d 7f SCF=(maxcycles=300) Integral(
 PMP2-0=-47.2155778\MP4SDQ=-47.2398453\CCSD=-47.2399006\CCSD(T)=-47.259
 Normal termination of Gaussian 16 at Wed Feb 14 05:09:51 2018.
