 Gaussian 16, Revision A.03,
 Gaussian 16:  ES64L-G16RevA.03 25-Dec-2016

 ----------------------------------------------------------------------
 #P ROCCSD(T)=(MaxCyc=150, Full)/Gen SCF=(maxcycle=400) Pseudo=Read Int
 egral(NoXCTest) Pop=Regular MaxDisk=500GB Guess=Read IOp(5/15=2)
 ----------------------------------------------------------------------

 ---
 ZnO
 ---
 Symbolic Z-matrix:
 Charge =  0 Multiplicity = 1

                         Standard orientation:
 ---------------------------------------------------------------------
 Center     Atomic      Atomic             Coordinates (Angstroms)
 Number     Number       Type             X           Y           Z
 ---------------------------------------------------------------------
      1         30           0        0.000000    0.000000    0.357895
      2          8           0        0.000000    0.000000   -1.342105
 ---------------------------------------------------------------------

 SCF Done:  E(ROHF) =  -241.253650020     A.U. after   11 cycles
 E2 =    -0.1389358186D+01 EUMP2 =    -0.24264300820611D+03
 CCSD(T)
 CCSD(T)= -0.24258496288D+03

 The electronic state is 1-SG.
 Alpha  occ. eigenvalues --   -5.90967  -4.02682  -4.02578  -4.02578  -1.16571
 Alpha  occ. eigenvalues --   -0.82824  -0.82824  -0.82288  -0.82288  -0.80469
 Alpha  occ. eigenvalues --   -0.39994  -0.39994  -0.37482
 Alpha virt. eigenvalues --   -0.04855   0.02356   0.02356   0.02384   0.04198
 Alpha virt. eigenvalues --    0.07643   0.07643   0.11882   0.16463   0.17528
 Alpha virt. eigenvalues --    0.17748   0.17748   0.20523   0.20523   0.23172

 Mulliken charges and spin densities:
               1          2
     1  Zn   0.950805   0.000000
     2  O   -0.950805   0.000000
 Sum of Mulliken charges =   0.00000   0.00000

 Dipole moment (field-independent basis, Debye):
    X=              0.0000    Y=              0.0000    Z=              7.1235  Tot=              7.1235
 Quadrupole moment (field-independent basis, Debye-Ang):
   XX=            -18.1422   YY=            -18.1422   ZZ=            -21.6955
   XY=              0.0000   XZ=              0.0000   YZ=              0.0000

 P ROCCSD(T)=(MaxCyc=150, Full)/Gen SCF=(maxcycle=400) Pseudo=Read Inte
 -242.6430082\MP4SDQ=-242.57486\CCSD=-242.5343329\CCSD(T)=-242.5849629\
 Normal termination of Gaussian 16 at Tue Mar 27 14:07:08 2018.
