 Gaussian 16, Revision A.03,
 Gaussian 16:  ES64L-G16RevA.03 25-Dec-2016

 ----------------------------------------------------------------------
 #P ROCCSD(T)=(MaxCyc=150, Full)/Gen SCF=(maxcycle=400) Pseudo=Read Int
 egral(NoXCTest) Pop=Regular MaxDisk=500GB Guess=Read IOp(5/15=2)
 ----------------------------------------------------------------------

 ---
 ZnO
 ---
 Symbolic Z-matrix:
 Charge =  0 Multiplicity = 1

                         Standard orientation:
 ---------------------------------------------------------------------
 Center     Atomic      Atomic             Coordinates (Angstroms)
 Number     Number       Type             X           Y           Z
 ---------------------------------------------------------------------
      1         30           0        0.000000    0.000000    0.357895
      2          8           0        0.000000    0.000000   -1.342105
 ---------------------------------------------------------------------

 SCF Done:  E(ROHF) =  -241.250911154     A.U. after    1 cycles
 E2 =    -0.1321251717D+01 EUMP2 =    -0.24257216287084D+03
 CCSD(T)
 CCSD(T)= -0.24251659123D+03

 The electronic state is 1-SG.
 Alpha  occ. eigenvalues --   -5.90983  -4.02708  -4.02598  -4.02598  -1.16612
 Alpha  occ. eigenvalues --   -0.82838  -0.82838  -0.82298  -0.82298  -0.80488
 Alpha  occ. eigenvalues --   -0.39982  -0.39982  -0.37500
 Alpha virt. eigenvalues --   -0.04868   0.02590   0.02590   0.02608   0.04681
 Alpha virt. eigenvalues --    0.08770   0.08770   0.13292   0.17501   0.22044
 Alpha virt. eigenvalues --    0.23674   0.23674   0.24628   0.24628   0.29896

 Mulliken charges and spin densities:
               1          2
     1  Zn   1.028129   0.000000
     2  O   -1.028129   0.000000
 Sum of Mulliken charges =  -0.00000   0.00000

 Dipole moment (field-independent basis, Debye):
    X=              0.0000    Y=              0.0000    Z=              7.1372  Tot=              7.1372
 Quadrupole moment (field-independent basis, Debye-Ang):
   XX=            -18.1555   YY=            -18.1555   ZZ=            -21.6959
   XY=              0.0000   XZ=              0.0000   YZ=              0.0000

 P ROCCSD(T)=(MaxCyc=150, Full)/Gen SCF=(maxcycle=400) Pseudo=Read Inte
 2-0=-242.5721629\MP4SDQ=-242.509957\CCSD=-242.4685417\CCSD(T)=-242.516
 Normal termination of Gaussian 16 at Tue Mar 27 11:52:57 2018.
