 Gaussian 16, Revision A.03,
 Gaussian 16:  ES64L-G16RevA.03 25-Dec-2016

 ----------------------------------------------------------------------
 #P ROCCSD(T)=(maxcyc=150, Full)/Gen 5d 7f SCF=(maxcycles=300) Integral
 (NoXCTest) MaxDisk=500GB Pop=Regular Pseudo=Read IOp(5/15=2) Guess=Rea
 d
 ----------------------------------------------------------------------

 ---
 ScH
 ---
 Symbolic Z-matrix:
 Charge =  0 Multiplicity = 1

                         Standard orientation:
 ---------------------------------------------------------------------
 Center     Atomic      Atomic             Coordinates (Angstroms)
 Number     Number       Type             X           Y           Z
 ---------------------------------------------------------------------
      1         21           0        0.000000    0.000000    0.068182
      2          1           0        0.000000    0.000000   -1.431818
 ---------------------------------------------------------------------

 SCF Done:  E(ROHF) =  -46.7709276654     A.U. after   11 cycles
 E2 =    -0.4308615185D+00 EUMP2 =    -0.47201789183907D+02
 CCSD(T)
 CCSD(T)= -0.47242390043D+02

 The electronic state is 1-SG.
 Alpha  occ. eigenvalues --   -2.72043  -1.63684  -1.62716  -1.62716  -0.44226
 Alpha  occ. eigenvalues --   -0.22267
 Alpha virt. eigenvalues --    0.01217   0.01217   0.01575   0.01897   0.02878
 Alpha virt. eigenvalues --    0.02878   0.02901   0.02901   0.02914   0.04258
 Alpha virt. eigenvalues --    0.04258   0.04462   0.07859   0.07872   0.07872

 Mulliken charges and spin densities:
               1          2
     1  Sc   0.300299   0.000000
     2  H   -0.300299   0.000000
 Sum of Mulliken charges =  -0.00000   0.00000

 Dipole moment (field-independent basis, Debye):
    X=              0.0000    Y=              0.0000    Z=              0.7241  Tot=              0.7241
 Quadrupole moment (field-independent basis, Debye-Ang):
   XX=            -23.3353   YY=            -23.3353   ZZ=            -24.6896
   XY=              0.0000   XZ=              0.0000   YZ=              0.0000

 P ROCCSD(T)=(maxcyc=150, Full)/Gen 5d 7f SCF=(maxcycles=300) Integral(
 MP2-0=-47.2017892\MP4SDQ=-47.2238294\CCSD=-47.2234737\CCSD(T)=-47.2423
 Normal termination of Gaussian 16 at Wed Feb 14 00:06:21 2018.
