 Gaussian 16, Revision A.03,
 Gaussian 16:  ES64L-G16RevA.03 25-Dec-2016

 ----------------------------------------------------------------------
 #P ROCCSD(T)=(maxcyc=150, Full)/Gen 5d 7f SCF=(maxcycles=300) Integral
 (NoXCTest) MaxDisk=500GB Pop=Regular Pseudo=Read Guess=Read
 ----------------------------------------------------------------------

 ---
 ScH
 ---
 Symbolic Z-matrix:
 Charge =  0 Multiplicity = 1

                         Standard orientation:
 ---------------------------------------------------------------------
 Center     Atomic      Atomic             Coordinates (Angstroms)
 Number     Number       Type             X           Y           Z
 ---------------------------------------------------------------------
      1         21           0        0.000000    0.000000    0.045455
      2          1           0        0.000000    0.000000   -0.954545
 ---------------------------------------------------------------------

 SCF Done:  E(ROHF) =  -46.3879115394     A.U. after   11 cycles
 E2 =    -0.4417172952D+00 EUMP2 =    -0.46829628834600D+02
 CCSD(T)
 CCSD(T)= -0.46864665694D+02

 The electronic state is 1-SG.
 Alpha  occ. eigenvalues --   -2.60317  -1.66736  -1.56518  -1.56518  -0.47777
 Alpha  occ. eigenvalues --   -0.21272
 Alpha virt. eigenvalues --    0.01177   0.01334   0.01334   0.01717   0.02606
 Alpha virt. eigenvalues --    0.02606   0.02618   0.02643   0.02643   0.04003
 Alpha virt. eigenvalues --    0.04441   0.04441   0.07186   0.07426   0.07426

 Mulliken charges and spin densities:
               1          2
     1  Sc   0.137391   0.000000
     2  H   -0.137391   0.000000
 Sum of Mulliken charges =  -0.00000   0.00000

 Dipole moment (field-independent basis, Debye):
    X=              0.0000    Y=              0.0000    Z=              1.2918  Tot=              1.2918
 Quadrupole moment (field-independent basis, Debye-Ang):
   XX=            -23.5184   YY=            -23.5184   ZZ=            -22.0934
   XY=              0.0000   XZ=              0.0000   YZ=              0.0000

 P ROCCSD(T)=(maxcyc=150, Full)/Gen 5d 7f SCF=(maxcycles=300) Integral(
 96288\MP4SDQ=-46.8464515\CCSD=-46.8463272\CCSD(T)=-46.8646657\RMSD=1.9
 Normal termination of Gaussian 16 at Mon Feb 12 16:35:55 2018.
