 Gaussian 16, Revision A.03,
 Gaussian 16:  ES64L-G16RevA.03 25-Dec-2016

 ----------------------------------------------------------------------
 #P ROCCSD(T)=(maxcyc=150, Full, SaveAmplitudes, ReadAmplitudes)/Gen 5d
  7f SCF=(maxcycles=300) Integral(NoXCTest) MaxDisk=500GB Pop=Regular P
 seudo=Read Guess=Read
 ----------------------------------------------------------------------

 ---
 TiO
 ---
 Symbolic Z-matrix:
 Charge =  0 Multiplicity = 3

                         Standard orientation:
 ---------------------------------------------------------------------
 Center     Atomic      Atomic             Coordinates (Angstroms)
 Number     Number       Type             X           Y           Z
 ---------------------------------------------------------------------
      1         22           0        0.000000    0.000000    0.400000
      2          8           0        0.000000    0.000000   -1.100000
 ---------------------------------------------------------------------

 SCF Done:  E(ROHF) =  -73.5436048833     A.U. after   19 cycles
 E2 =    -0.7802983341D+00 EUMP2 =    -0.74323903217389D+02
 CCSD(T)
 CCSD(T)= -0.74347561363D+02

 Unable to determine electronic state:  an orbital has unidentified symmetry.
 Alpha  occ. eigenvalues --   -3.01092  -1.89593  -1.87575  -1.87575  -1.15898
 Alpha  occ. eigenvalues --   -0.48741  -0.48741  -0.48386  -0.42519  -0.24999
 Alpha virt. eigenvalues --    0.00716   0.00716   0.01716   0.02368   0.03743
 Alpha virt. eigenvalues --    0.03803   0.03873   0.03873   0.04090   0.04192
 Alpha virt. eigenvalues --    0.04192   0.06062   0.09823   0.10419   0.11540

 Mulliken charges and spin densities:
               1          2
     1  Ti   0.995376   1.966906
     2  O   -0.995376   0.033094
 Sum of Mulliken charges =  -0.00000   2.00000

 Dipole moment (field-independent basis, Debye):
    X=              0.0000    Y=              0.0000    Z=              3.1676  Tot=              3.1676
 Quadrupole moment (field-independent basis, Debye-Ang):
   XX=            -21.4351   YY=            -21.4351   ZZ=            -28.1674
   XY=              0.0000   XZ=              0.0000   YZ=              0.0000

 \\#P ROCCSD(T)=(maxcyc=150, Full, SaveAmplitudes, ReadAmplitudes)/Gen
 -0=-74.3239032\CCSD=-74.3042263\CCSD(T)=-74.3475614\RMSD=6.581e-09\PG=
 Normal termination of Gaussian 16 at Tue Mar 13 01:26:27 2018.
