 Gaussian 16, Revision A.03,
 Gaussian 16:  ES64L-G16RevA.03 25-Dec-2016

 ----------------------------------------------------------------------
 #P ROCCSD(T)=(maxcyc=150, Full, SaveAmplitudes, ReadAmplitudes)/Gen 5d
  7f SCF=(maxcycles=300) Integral(NoXCTest) MaxDisk=500GB Pop=Regular P
 seudo=Read Guess=Read IOp(5/15=2)
 ----------------------------------------------------------------------

 ---
 TiO
 ---
 Symbolic Z-matrix:
 Charge =  0 Multiplicity = 3

                         Standard orientation:
 ---------------------------------------------------------------------
 Center     Atomic      Atomic             Coordinates (Angstroms)
 Number     Number       Type             X           Y           Z
 ---------------------------------------------------------------------
      1         22           0        0.000000    0.000000    0.453333
      2          8           0        0.000000    0.000000   -1.246667
 ---------------------------------------------------------------------

 SCF Done:  E(ROHF) =  -73.3884248093     A.U. after   21 cycles
 E2 =    -0.7459624057D+00 EUMP2 =    -0.74134387214997D+02
 CCSD(T)
 CCSD(T)= -0.74166983881D+02

 Unable to determine electronic state:  an orbital has unidentified symmetry.
 Alpha  occ. eigenvalues --   -3.03679  -1.93723  -1.93723  -1.90730  -1.15537
 Alpha  occ. eigenvalues --   -0.48334  -0.45106  -0.42136  -0.42136  -0.27504
 Alpha virt. eigenvalues --   -0.00031  -0.00031   0.01247   0.02435   0.03841
 Alpha virt. eigenvalues --    0.03841   0.04507   0.04833   0.05128   0.05893
 Alpha virt. eigenvalues --    0.05893   0.06367   0.09567   0.11041   0.13023

 Mulliken charges and spin densities:
               1          2
     1  Ti   0.923945   1.992389
     2  O   -0.923945   0.007611
 Sum of Mulliken charges =  -0.00000   2.00000

 Dipole moment (field-independent basis, Debye):
    X=              0.0000    Y=              0.0000    Z=              5.1078  Tot=              5.1078
 Quadrupole moment (field-independent basis, Debye-Ang):
   XX=            -21.5347   YY=            -21.5347   ZZ=            -29.7983
   XY=              0.0000   XZ=              0.0000   YZ=              0.0000

 \\#P ROCCSD(T)=(maxcyc=150, Full, SaveAmplitudes, ReadAmplitudes)/Gen
 1187835\CCSD(T)=-74.1669839\RMSD=7.927e-09\PG=C*V [C*(O1Ti1)]\\@
 Normal termination of Gaussian 16 at Sat Mar 10 02:26:59 2018.
