 Gaussian 16, Revision A.03,
 Gaussian 16:  ES64L-G16RevA.03 25-Dec-2016

 ----------------------------------------------------------------------
 #P ROCCSD(T)=(maxcyc=150, Full, SaveAmplitudes, ReadAmplitudes)/Gen 5d
  7f SCF=(maxcycles=300) Integral(NoXCTest) MaxDisk=500GB Pop=Regular P
 seudo=Read Guess=Read
 ----------------------------------------------------------------------

 ---
 MnH
 ---
 Symbolic Z-matrix:
 Charge =  0 Multiplicity = 7

                         Standard orientation:
 ---------------------------------------------------------------------
 Center     Atomic      Atomic             Coordinates (Angstroms)
 Number     Number       Type             X           Y           Z
 ---------------------------------------------------------------------
      1         25           0        0.000000    0.000000    0.038462
      2          1           0        0.000000    0.000000   -0.961538
 ---------------------------------------------------------------------

 SCF Done:  E(ROHF) =  -103.953931279     A.U. after   22 cycles
 E2 =    -0.6518875708D+00 EUMP2 =    -0.10460581884975D+03
 CCSD(T)
 CCSD(T)= -0.10461690224D+03

 The electronic state is 7-SG.
 Alpha  occ. eigenvalues --   -4.17150  -2.77697  -2.75143  -2.75143  -0.72032
 Alpha  occ. eigenvalues --   -0.65003  -0.65003  -0.63769  -0.63769  -0.39524
 Alpha  occ. eigenvalues --   -0.21293
 Alpha virt. eigenvalues --    0.01184   0.01184   0.01710   0.03372   0.05010
 Alpha virt. eigenvalues --    0.05010   0.05806   0.05806   0.05811   0.06049
 Alpha virt. eigenvalues --    0.06049   0.07706   0.14149   0.16430   0.17510

 Mulliken charges and spin densities:
               1          2
     1  Mn   0.535239   5.756824
     2  H   -0.535239   0.243176
 Sum of Mulliken charges =  -0.00000   6.00000

 Dipole moment (field-independent basis, Debye):
    X=              0.0000    Y=              0.0000    Z=             -1.2911  Tot=              1.2911
 Quadrupole moment (field-independent basis, Debye-Ang):
   XX=            -16.1427   YY=            -16.1427   ZZ=            -25.8240
   XY=              0.0000   XZ=              0.0000   YZ=              0.0000

 \\#P ROCCSD(T)=(maxcyc=150, Full, SaveAmplitudes, ReadAmplitudes)/Gen
 .9539313\PMP2-0=-104.6058188\CCSD=-104.59757\CCSD(T)=-104.6169022\RMSD
 Normal termination of Gaussian 16 at Sun Feb 25 18:03:12 2018.
