 Gaussian 16, Revision A.03,
 Gaussian 16:  ES64L-G16RevA.03 25-Dec-2016

 ----------------------------------------------------------------------
 #P ROCCSD(T)=(maxcyc=100, Full)/Gen SCF=(maxcycle=400, symm) Pseudo=Re
 ad Integral(NoXCTest) Pop=Regular MaxDisk=500GB Guess=Permute IOp(5/15
 =2)
 ----------------------------------------------------------------------

 ---
 FeH
 ---
 Symbolic Z-matrix:
 Charge =  0 Multiplicity = 4

                         Standard orientation:
 ---------------------------------------------------------------------
 Center     Atomic      Atomic             Coordinates (Angstroms)
 Number     Number       Type             X           Y           Z
 ---------------------------------------------------------------------
      1         26           0        0.000000    0.000000    0.074074
      2          1           0        0.000000    0.000000   -1.925926
 ---------------------------------------------------------------------

 SCF Done:  E(ROHF) =  -123.487332027     A.U. after   30 cycles
 E2 =    -0.7762692633D+00 EUMP2 =    -0.12426360129059D+03
 CCSD(T)
 CCSD(T)= -0.12427249573D+03

 Unable to determine electronic state:  an orbital has unidentified symmetry.
 Alpha  occ. eigenvalues --   -4.36639  -2.79176  -2.79067  -2.79067  -0.48694
 Alpha  occ. eigenvalues --   -0.48694  -0.48667  -0.43683  -0.42583  -0.30943
 Alpha virt. eigenvalues --   -0.01316   0.02034   0.02034   0.03227   0.03263
 Alpha virt. eigenvalues --    0.06190   0.06638   0.06653   0.06866   0.06866
 Alpha virt. eigenvalues --    0.07587   0.07587   0.10448   0.14938   0.17378

 Mulliken charges and spin densities:
               1          2
     1  Fe   0.376916   2.999522
     2  H   -0.376916   0.000478
 Sum of Mulliken charges =  -0.00000   3.00000

 Dipole moment (field-independent basis, Debye):
    X=              0.0000    Y=              0.0000    Z=              5.5356  Tot=              5.5356
 Quadrupole moment (field-independent basis, Debye-Ang):
   XX=            -15.2230   YY=            -15.2230   ZZ=            -20.8823
   XY=              0.0000   XZ=              0.0000   YZ=              0.0000

 \\#P ROCCSD(T)=(maxcyc=100, Full)/Gen SCF=(maxcycle=400, symm) Pseudo=
 9119\CCSD(T)=-124.2724957\RMSD=3.702e-09\PG=C*V [C*(H1Fe1)]\\@
 Normal termination of Gaussian 16 at Mon Feb 19 14:07:20 2018.
