 Gaussian 16, Revision A.03,
 Gaussian 16:  ES64L-G16RevA.03 25-Dec-2016

 ----------------------------------------------------------------------
 #P ROCCSD(T)=(maxcyc=100, Full)/Gen SCF=(maxcycle=400, symm) Pseudo=Re
 ad Integral(NoXCTest) Pop=Regular MaxDisk=500GB Guess=Permute IOp(5/15
 =2)
 ----------------------------------------------------------------------

 ---
 FeH
 ---
 Symbolic Z-matrix:
 Charge =  0 Multiplicity = 4

                         Standard orientation:
 ---------------------------------------------------------------------
 Center     Atomic      Atomic             Coordinates (Angstroms)
 Number     Number       Type             X           Y           Z
 ---------------------------------------------------------------------
      1         26           0        0.000000    0.000000    0.074074
      2          1           0        0.000000    0.000000   -1.925926
 ---------------------------------------------------------------------

 SCF Done:  E(ROHF) =  -123.492898290     A.U. after   30 cycles
 E2 =    -0.7903761022D+00 EUMP2 =    -0.12428327439193D+03
 CCSD(T)
 CCSD(T)= -0.12429018041D+03

 Unable to determine electronic state:  an orbital has unidentified symmetry.
 Alpha  occ. eigenvalues --   -4.36760  -2.79135  -2.79026  -2.79026  -0.48696
 Alpha  occ. eigenvalues --   -0.48696  -0.48670  -0.43690  -0.42590  -0.30945
 Alpha virt. eigenvalues --   -0.01328   0.01970   0.01970   0.02693   0.02979
 Alpha virt. eigenvalues --    0.05729   0.06085   0.06097   0.06375   0.06375
 Alpha virt. eigenvalues --    0.07213   0.07213   0.09077   0.12335   0.15131

 Mulliken charges and spin densities:
               1          2
     1  Fe   0.337646   2.998049
     2  H   -0.337646   0.001951
 Sum of Mulliken charges =  -0.00000   3.00000

 Dipole moment (field-independent basis, Debye):
    X=              0.0000    Y=              0.0000    Z=              5.5342  Tot=              5.5342
 Quadrupole moment (field-independent basis, Debye-Ang):
   XX=            -15.2203   YY=            -15.2203   ZZ=            -20.8815
   XY=              0.0000   XZ=              0.0000   YZ=              0.0000

 \\#P ROCCSD(T)=(maxcyc=100, Full)/Gen SCF=(maxcycle=400, symm) Pseudo=
 627406\CCSD(T)=-124.2901804\RMSD=4.372e-09\PG=C*V [C*(H1Fe1)]\\@
 Normal termination of Gaussian 16 at Mon Feb 12 22:16:20 2018.
