 Gaussian 16, Revision A.03,
 Gaussian 16:  ES64L-G16RevA.03 25-Dec-2016

 ----------------------------------------------------------------------
 #P ROCCSD(T)=(maxcyc=100, Full)/Gen SCF=(maxcycle=400, symm) Pseudo=Re
 ad Integral(NoXCTest) Pop=Regular MaxDisk=500GB Guess=Permute IOp(5/15
 =2)
 ----------------------------------------------------------------------

 ---
 FeH
 ---
 Symbolic Z-matrix:
 Charge =  0 Multiplicity = 4

                         Standard orientation:
 ---------------------------------------------------------------------
 Center     Atomic      Atomic             Coordinates (Angstroms)
 Number     Number       Type             X           Y           Z
 ---------------------------------------------------------------------
      1         26           0        0.000000    0.000000    0.074074
      2          1           0        0.000000    0.000000   -1.925926
 ---------------------------------------------------------------------

 SCF Done:  E(ROHF) =  -123.491568253     A.U. after   29 cycles
 E2 =    -0.7407594180D+00 EUMP2 =    -0.12423232767069D+03
 CCSD(T)
 CCSD(T)= -0.12424316181D+03

 Unable to determine electronic state:  an orbital has unidentified symmetry.
 Alpha  occ. eigenvalues --   -4.36801  -2.79142  -2.79032  -2.79032  -0.48686
 Alpha  occ. eigenvalues --   -0.48686  -0.48658  -0.43673  -0.42565  -0.30944
 Alpha virt. eigenvalues --   -0.01311   0.02274   0.02274   0.03511   0.03531
 Alpha virt. eigenvalues --    0.08273   0.08273   0.09329   0.09968   0.10011
 Alpha virt. eigenvalues --    0.10320   0.10320   0.11282   0.16697   0.21738

 Mulliken charges and spin densities:
               1          2
     1  Fe   0.432267   2.999469
     2  H   -0.432267   0.000531
 Sum of Mulliken charges =  -0.00000   3.00000

 Dipole moment (field-independent basis, Debye):
    X=              0.0000    Y=              0.0000    Z=              5.5375  Tot=              5.5375
 Quadrupole moment (field-independent basis, Debye-Ang):
   XX=            -15.2374   YY=            -15.2374   ZZ=            -20.8624
   XY=              0.0000   XZ=              0.0000   YZ=              0.0000

 \\#P ROCCSD(T)=(maxcyc=100, Full)/Gen SCF=(maxcycle=400, symm) Pseudo=
 190705\CCSD(T)=-124.2431618\RMSD=1.499e-09\PG=C*V [C*(H1Fe1)]\\@
 Normal termination of Gaussian 16 at Mon Feb 12 20:25:07 2018.
