 Gaussian 16, Revision A.03,
 Gaussian 16:  ES64L-G16RevA.03 25-Dec-2016

 ----------------------------------------------------------------------
 #P ROCCSD(T)=(maxcyc=150, Full)/Gen 5d 7f SCF=(maxcycles=300) Integral
 (NoXCTest) MaxDisk=500GB Pop=Regular Pseudo=Read IOp(5/15=2) Guess=Rea
 d
 ----------------------------------------------------------------------

 ---
 ScH
 ---
 Symbolic Z-matrix:
 Charge =  0 Multiplicity = 1

                         Standard orientation:
 ---------------------------------------------------------------------
 Center     Atomic      Atomic             Coordinates (Angstroms)
 Number     Number       Type             X           Y           Z
 ---------------------------------------------------------------------
      1         21           0        0.000000    0.000000    0.095455
      2          1           0        0.000000    0.000000   -2.004545
 ---------------------------------------------------------------------

 SCF Done:  E(ROHF) =  -46.5847443956     A.U. after   10 cycles
 E2 =    -0.4249912884D+00 EUMP2 =    -0.47009735683958D+02
 CCSD(T)
 CCSD(T)= -0.47054537520D+02

 The electronic state is 1-SG.
 Alpha  occ. eigenvalues --   -2.72188  -1.68925  -1.68925  -1.68722  -0.36796
 Alpha  occ. eigenvalues --   -0.24281
 Alpha virt. eigenvalues --    0.00915   0.00915   0.01086   0.01838   0.02562
 Alpha virt. eigenvalues --    0.02562   0.02684   0.02684   0.02754   0.03454
 Alpha virt. eigenvalues --    0.03787   0.03787   0.06169   0.06169   0.06949

 Mulliken charges and spin densities:
               1          2
     1  Sc   0.361962   0.000000
     2  H   -0.361962   0.000000
 Sum of Mulliken charges =  -0.00000   0.00000

 Dipole moment (field-independent basis, Debye):
    X=              0.0000    Y=              0.0000    Z=              2.6006  Tot=              2.6006
 Quadrupole moment (field-independent basis, Debye-Ang):
   XX=            -22.9227   YY=            -22.9227   ZZ=            -29.1861
   XY=              0.0000   XZ=              0.0000   YZ=              0.0000

 P ROCCSD(T)=(maxcyc=150, Full)/Gen 5d 7f SCF=(maxcycles=300) Integral(
 MP2-0=-47.0097357\MP4SDQ=-47.0331648\CCSD=-47.0338628\CCSD(T)=-47.0545
 Normal termination of Gaussian 16 at Wed Feb 14 11:31:34 2018.
