 Gaussian 16, Revision A.03,
 Gaussian 16:  ES64L-G16RevA.03 25-Dec-2016

 ----------------------------------------------------------------------
 #P ROCCSD(T)=(maxcyc=150, Full, SaveAmplitudes, ReadAmplitudes)/Gen 5d
  7f SCF=(maxcycles=300) Integral(NoXCTest) MaxDisk=500GB Pop=Regular P
 seudo=Read Guess=Read
 ----------------------------------------------------------------------

 ---
 ScO
 ---
 Symbolic Z-matrix:
 Charge =  0 Multiplicity = 2

                         Standard orientation:
 ---------------------------------------------------------------------
 Center     Atomic      Atomic             Coordinates (Angstroms)
 Number     Number       Type             X           Y           Z
 ---------------------------------------------------------------------
      1         21           0        0.000000    0.000000    0.524138
      2          8           0        0.000000    0.000000   -1.375862
 ---------------------------------------------------------------------

 SCF Done:  E(ROHF) =  -62.0450327403     A.U. after   17 cycles
 E2 =    -0.7240655596D+00 EUMP2 =    -0.62769098299829D+02
 CCSD(T)
 CCSD(T)= -0.62797808264D+02

 The electronic state is 2-SG.
 Alpha  occ. eigenvalues --   -2.74958  -1.68801  -1.68760  -1.68760  -1.09843
 Alpha  occ. eigenvalues --   -0.40205  -0.36376  -0.36376  -0.27577
 Alpha virt. eigenvalues --   -0.00855  -0.00855   0.00782   0.01822   0.02574
 Alpha virt. eigenvalues --    0.02574   0.02609   0.02609   0.03266   0.03266
 Alpha virt. eigenvalues --    0.03441   0.03918   0.05346   0.05346   0.08834

 Mulliken charges and spin densities:
               1          2
     1  Sc   1.228198   0.982284
     2  O   -1.228198   0.017716
 Sum of Mulliken charges =  -0.00000   1.00000

 Dipole moment (field-independent basis, Debye):
    X=              0.0000    Y=              0.0000    Z=              6.6970  Tot=              6.6970
 Quadrupole moment (field-independent basis, Debye-Ang):
   XX=            -21.9271   YY=            -21.9271   ZZ=            -33.8851
   XY=              0.0000   XZ=              0.0000   YZ=              0.0000

 \\#P ROCCSD(T)=(maxcyc=150, Full, SaveAmplitudes, ReadAmplitudes)/Gen
 450327\PMP2-0=-62.7690983\CCSD=-62.7483039\CCSD(T)=-62.7978083\RMSD=1.
 Normal termination of Gaussian 16 at Wed Feb 21 07:58:46 2018.
