 Gaussian 16, Revision A.03,
 Gaussian 16:  ES64L-G16RevA.03 25-Dec-2016

 ----------------------------------------------------------------------
 #P ROCCSD(T)=(maxcyc=150, Full, SaveAmplitudes, ReadAmplitudes)/Gen 5d
  7f SCF=(maxcycles=300) Integral(NoXCTest) MaxDisk=500GB Pop=Regular P
 seudo=Read Guess=Read
 ----------------------------------------------------------------------

 ---
 TiO
 ---
 Symbolic Z-matrix:
 Charge =  0 Multiplicity = 3

                         Standard orientation:
 ---------------------------------------------------------------------
 Center     Atomic      Atomic             Coordinates (Angstroms)
 Number     Number       Type             X           Y           Z
 ---------------------------------------------------------------------
      1         22           0        0.000000    0.000000    0.400000
      2          8           0        0.000000    0.000000   -1.100000
 ---------------------------------------------------------------------

 SCF Done:  E(ROHF) =  -73.5330944177     A.U. after   19 cycles
 E2 =    -0.7859114254D+00 EUMP2 =    -0.74319005843088D+02
 CCSD(T)
 CCSD(T)= -0.74343344564D+02

 Unable to determine electronic state:  an orbital has unidentified symmetry.
 Alpha  occ. eigenvalues --   -3.01297  -1.88590  -1.86763  -1.86763  -1.15320
 Alpha  occ. eigenvalues --   -0.48796  -0.48796  -0.48352  -0.41860  -0.24951
 Alpha virt. eigenvalues --    0.00670   0.00670   0.01748   0.02350   0.03738
 Alpha virt. eigenvalues --    0.03800   0.03841   0.03841   0.04085   0.04179
 Alpha virt. eigenvalues --    0.04179   0.06042   0.09804   0.10462   0.11515

 Mulliken charges and spin densities:
               1          2
     1  Ti   1.048802   1.970009
     2  O   -1.048802   0.029991
 Sum of Mulliken charges =  -0.00000   2.00000

 Dipole moment (field-independent basis, Debye):
    X=              0.0000    Y=              0.0000    Z=              3.1053  Tot=              3.1053
 Quadrupole moment (field-independent basis, Debye-Ang):
   XX=            -21.4524   YY=            -21.4524   ZZ=            -28.4464
   XY=              0.0000   XZ=              0.0000   YZ=              0.0000

 \\#P ROCCSD(T)=(maxcyc=150, Full, SaveAmplitudes, ReadAmplitudes)/Gen
 -0=-74.3190058\CCSD=-74.3001989\CCSD(T)=-74.3433446\RMSD=6.943e-09\PG=
 Normal termination of Gaussian 16 at Tue Mar 13 00:35:37 2018.
