 Gaussian 16, Revision A.03,
 Gaussian 16:  ES64L-G16RevA.03 25-Dec-2016

 ----------------------------------------------------------------------
 #P ROCCSD(T)=(MaxCyc=150, Full)/Gen SCF=(maxcycle=400, vshift=200) Int
 egral(DKHSO, NoXCTest) Pop=Regular MaxDisk=500GB Guess=Read IOp(5/15=2
 )
 ----------------------------------------------------------------------

 ---
 ZnH
 ---
 Symbolic Z-matrix:
 Charge =  0 Multiplicity = 2

                         Standard orientation:
 ---------------------------------------------------------------------
 Center     Atomic      Atomic             Coordinates (Angstroms)
 Number     Number       Type             X           Y           Z
 ---------------------------------------------------------------------
      1         30           0        0.000000    0.000000    0.038710
      2          1           0        0.000000    0.000000   -1.161290
 ---------------------------------------------------------------------

 SCF Done:  E(ROHF) =  -1794.74274465     A.U. after   27 cycles
 E2 =    -0.1489228353D+01 EUMP2 =    -0.17962319729990D+04
 CCSD(T)
 CCSD(T)= -0.17961516081D+04

 The electronic state is 2-SG.
 Alpha  occ. eigenvalues -- -357.60054 -45.37367 -39.17591 -39.17551 -39.17551
 Alpha  occ. eigenvalues --   -5.84459  -3.92918  -3.91959  -3.91959  -0.83414
 Alpha  occ. eigenvalues --   -0.80717  -0.80717  -0.80634  -0.80634  -0.49019
 Alpha  occ. eigenvalues --   -0.26543
 Alpha virt. eigenvalues --    0.02169   0.02169   0.02577   0.04158   0.07797
 Alpha virt. eigenvalues --    0.07797   0.08954   0.16083   0.19235   0.24422
 Alpha virt. eigenvalues --    0.24422   0.25151   0.25151   0.26900   0.28496

 Mulliken charges and spin densities:
               1          2
     1  Zn   0.301658   0.957319
     2  H   -0.301658   0.042681
 Sum of Mulliken charges =  -0.00000   1.00000

 Dipole moment (field-independent basis, Debye):
    X=              0.0000    Y=              0.0000    Z=             -0.2676  Tot=              0.2676
 Quadrupole moment (field-independent basis, Debye-Ang):
   XX=            -14.6164   YY=            -14.6164   ZZ=            -20.6951
   XY=              0.0000   XZ=              0.0000   YZ=              0.0000

 \\#P ROCCSD(T)=(MaxCyc=150, Full)/Gen SCF=(maxcycle=400, vshift=200) I
 CCSD(T)=-1796.1516081\RMSD=5.519e-09\PG=C*V [C*(H1Zn1)]\\@
 Normal termination of Gaussian 16 at Sat Apr 21 10:17:13 2018.
