 Gaussian 16, Revision A.03,
 Gaussian 16:  ES64L-G16RevA.03 25-Dec-2016

 ----------------------------------------------------------------------
 #P ROCCSD(T)=(MaxCyc=150, Full)/Gen SCF=(maxcycle=400, vshift=200) Int
 egral(DKHSO, NoXCTest) Pop=Regular MaxDisk=500GB Guess=Read IOp(5/15=2
 )
 ----------------------------------------------------------------------

 ---
 ZnH
 ---
 Symbolic Z-matrix:
 Charge =  0 Multiplicity = 2

                         Standard orientation:
 ---------------------------------------------------------------------
 Center     Atomic      Atomic             Coordinates (Angstroms)
 Number     Number       Type             X           Y           Z
 ---------------------------------------------------------------------
      1         30           0        0.000000    0.000000    0.038710
      2          1           0        0.000000    0.000000   -1.161290
 ---------------------------------------------------------------------

 SCF Done:  E(ROHF) =  -1794.74505535     A.U. after   20 cycles
 E2 =    -0.1561123063D+01 EUMP2 =    -0.17963061784081D+04
 CCSD(T)
 CCSD(T)= -0.17962251287D+04

 The electronic state is 2-SG.
 Alpha  occ. eigenvalues -- -357.60056 -45.37343 -39.17564 -39.17523 -39.17523
 Alpha  occ. eigenvalues --   -5.84443  -3.92903  -3.91942  -3.91942  -0.83413
 Alpha  occ. eigenvalues --   -0.80715  -0.80715  -0.80630  -0.80630  -0.49015
 Alpha  occ. eigenvalues --   -0.26543
 Alpha virt. eigenvalues --    0.02041   0.02041   0.02404   0.03819   0.06845
 Alpha virt. eigenvalues --    0.06845   0.08030   0.14547   0.17779   0.17804
 Alpha virt. eigenvalues --    0.17804   0.18228   0.18228   0.21915   0.23020

 Mulliken charges and spin densities:
               1          2
     1  Zn   0.241882   0.942164
     2  H   -0.241882   0.057836
 Sum of Mulliken charges =  -0.00000   1.00000

 Dipole moment (field-independent basis, Debye):
    X=              0.0000    Y=              0.0000    Z=             -0.2691  Tot=              0.2691
 Quadrupole moment (field-independent basis, Debye-Ang):
   XX=            -14.6106   YY=            -14.6106   ZZ=            -20.7026
   XY=              0.0000   XZ=              0.0000   YZ=              0.0000

 \\#P ROCCSD(T)=(MaxCyc=150, Full)/Gen SCF=(maxcycle=400, vshift=200) I
 1\CCSD(T)=-1796.2251287\RMSD=6.924e-09\PG=C*V [C*(H1Zn1)]\\@
 Normal termination of Gaussian 16 at Sat Apr 21 10:58:39 2018.
