 Gaussian 16, Revision A.03,
 Gaussian 16:  ES64L-G16RevA.03 25-Dec-2016

 ----------------------------------------------------------------------
 #P ROCCSD(T)=(maxcyc=150, Full)/Gen 5d 7f SCF=(maxcycles=300) MaxDisk=
 500GB Pop=Regular Pseudo=Read Guess=Read
 ----------------------------------------------------------------------

 -
 O
 -
 Symbolic Z-matrix:
 Charge =  0 Multiplicity = 3

                         Standard orientation:
 ---------------------------------------------------------------------
 Center     Atomic      Atomic             Coordinates (Angstroms)
 Number     Number       Type             X           Y           Z
 ---------------------------------------------------------------------
      1          8           0        0.000000    0.000000    0.000000
 ---------------------------------------------------------------------

 SCF Done:  E(ROHF) =  -15.7053471598     A.U. after   11 cycles
 E2 =    -0.1619459399D+00 EUMP2 =    -0.15867293099672D+02
 CCSD(T)
 CCSD(T)= -0.15887730785D+02

 Unable to determine electronic state:  an orbital has unidentified symmetry.
 Alpha  occ. eigenvalues --   -1.41779  -0.70281  -0.70281  -0.60656
 Alpha virt. eigenvalues --    0.14997   0.15306   0.15306   0.16258   0.62229
 Alpha virt. eigenvalues --    0.62229   0.63825   0.63825   0.64280   0.86073
 Alpha virt. eigenvalues --    0.86073   0.90393   1.02602   1.99564   1.99564

 Mulliken charges and spin densities:
               1          2
     1  O   -0.000000   2.000000
 Sum of Mulliken charges =  -0.00000   2.00000

 Dipole moment (field-independent basis, Debye):
    X=              0.0000    Y=              0.0000    Z=              0.0000  Tot=              0.0000
 Quadrupole moment (field-independent basis, Debye-Ang):
   XX=             -5.8000   YY=             -4.5568   ZZ=             -4.5568
   XY=             -0.0000   XZ=              0.0000   YZ=             -0.0000

 P ROCCSD(T)=(maxcyc=150, Full)/Gen 5d 7f SCF=(maxcycles=300) MaxDisk=5
 Normal termination of Gaussian 16 at Thu Feb 22 14:23:24 2018.
