 Gaussian 16, Revision A.03,
 Gaussian 16:  ES64L-G16RevA.03 25-Dec-2016

 ----------------------------------------------------------------------
 #P ROCCSD(T)=(maxcyc=150, Full, SaveAmplitudes, ReadAmplitudes)/Gen 5d
  7f SCF=(maxcycles=300) Integral(NoXCTest) MaxDisk=500GB Pop=Regular P
 seudo=Read Guess=Read
 ----------------------------------------------------------------------

 ---
 CrH
 ---
 Symbolic Z-matrix:
 Charge =  0 Multiplicity = 6

                         Standard orientation:
 ---------------------------------------------------------------------
 Center     Atomic      Atomic             Coordinates (Angstroms)
 Number     Number       Type             X           Y           Z
 ---------------------------------------------------------------------
      1         24           0        0.000000    0.000000    0.052000
      2          1           0        0.000000    0.000000   -1.248000
 ---------------------------------------------------------------------

 SCF Done:  E(ROHF) =  -86.3214675918     A.U. after   27 cycles
 E2 =    -0.5777058662D+00 EUMP2 =    -0.86899173457977D+02
 CCSD(T)
 CCSD(T)= -0.86927322152D+02

 The electronic state is 6-SG.
 Alpha  occ. eigenvalues --   -3.79404  -2.51210  -2.51210  -2.48551  -0.46156
 Alpha  occ. eigenvalues --   -0.44470  -0.44470  -0.41873  -0.41873  -0.26124
 Alpha virt. eigenvalues --    0.01515   0.01515   0.01963   0.02171   0.04651
 Alpha virt. eigenvalues --    0.05282   0.05282   0.05463   0.05463   0.05640
 Alpha virt. eigenvalues --    0.05640   0.06398   0.09406   0.12774   0.17009

 Mulliken charges and spin densities:
               1          2
     1  Cr   0.459854   4.992293
     2  H   -0.459854   0.007707
 Sum of Mulliken charges =  -0.00000   5.00000

 Dipole moment (field-independent basis, Debye):
    X=              0.0000    Y=              0.0000    Z=              1.5780  Tot=              1.5780
 Quadrupole moment (field-independent basis, Debye-Ang):
   XX=            -17.0174   YY=            -17.0174   ZZ=            -20.3002
   XY=              0.0000   XZ=              0.0000   YZ=              0.0000

 \\#P ROCCSD(T)=(maxcyc=150, Full, SaveAmplitudes, ReadAmplitudes)/Gen
 214676\PMP2-0=-86.8991735\CCSD=-86.9077186\CCSD(T)=-86.9273222\RMSD=8.
 Normal termination of Gaussian 16 at Mon Feb 26 01:07:36 2018.
