 Gaussian 16, Revision A.03,
 Gaussian 16:  ES64L-G16RevA.03 25-Dec-2016

 ----------------------------------------------------------------------
 #P ROCCSD(T)=(maxcyc=150, Full, SaveAmplitudes, ReadAmplitudes)/Gen 5d
  7f SCF=(maxcycles=300, VShift=400) Integral(NoXCTest) MaxDisk=500GB P
 op=Full Pseudo=Read Guess=Read IOp(5/15=2)
 ----------------------------------------------------------------------

 ---
 MnO
 ---
 Symbolic Z-matrix:
 Charge =  0 Multiplicity = 6

                         Standard orientation:
 ---------------------------------------------------------------------
 Center     Atomic      Atomic             Coordinates (Angstroms)
 Number     Number       Type             X           Y           Z
 ---------------------------------------------------------------------
      1         25           0        0.000000    0.000000    0.315152
      2          8           0        0.000000    0.000000   -0.984848
 ---------------------------------------------------------------------

 SCF Done:  E(ROHF) =  -119.074563527     A.U. after   46 cycles
 E2 =    -0.9294068862D+00 EUMP2 =    -0.12000397041361D+03
 CCSD(T)
 CCSD(T)= -0.12001107742D+03

 The electronic state is 6-SG.
 Alpha  occ. eigenvalues --   -4.14207  -2.78143  -2.78143  -2.78118  -1.27736
 Alpha  occ. eigenvalues --   -0.73404  -0.73404  -0.61389  -0.61389  -0.60183
 Alpha  occ. eigenvalues --   -0.40677  -0.40677  -0.30176
 Alpha virt. eigenvalues --    0.01911   0.02423   0.02423   0.03165   0.06377
 Alpha virt. eigenvalues --    0.07590   0.07590   0.08765   0.08765   0.09364
 Alpha virt. eigenvalues --    0.09364   0.10251   0.12074   0.16368   0.24524

 Mulliken charges and spin densities:
               1          2
     1  Mn   0.797139   4.760698
     2  O   -0.797139   0.239302
 Sum of Mulliken charges =  -0.00000   5.00000

 Dipole moment (field-independent basis, Debye):
    X=              0.0000    Y=              0.0000    Z=              2.7222  Tot=              2.7222
 Quadrupole moment (field-independent basis, Debye-Ang):
   XX=            -19.8372   YY=            -19.8372   ZZ=            -22.9019
   XY=              0.0000   XZ=              0.0000   YZ=              0.0000

 \\#P ROCCSD(T)=(maxcyc=150, Full, SaveAmplitudes, ReadAmplitudes)/Gen
 4SDQ=-119.9858244\CCSD=-119.971764\CCSD(T)=-120.0110774\RMSD=8.554e-09
 Normal termination of Gaussian 16 at Sat Mar 31 17:01:24 2018.
