 Gaussian 16, Revision A.03,
 Gaussian 16:  ES64L-G16RevA.03 25-Dec-2016

 ----------------------------------------------------------------------
 #P ROCCSD(T)=(MaxCyc=150, Window=(7,0))/Gen SCF=(maxcycle=400) Integra
 l(DKHSO, NoXCTest) Pop=Regular MaxDisk=500GB
 ----------------------------------------------------------------------

 ---
 FeO
 ---
 Symbolic Z-matrix:
 Charge =  0 Multiplicity = 5

                         Standard orientation:
 ---------------------------------------------------------------------
 Center     Atomic      Atomic             Coordinates (Angstroms)
 Number     Number       Type             X           Y           Z
 ---------------------------------------------------------------------
      1         26           0        0.000000    0.000000    0.329412
      2          8           0        0.000000    0.000000   -1.070588
 ---------------------------------------------------------------------

 SCF Done:  E(ROHF) =  -1346.12018533     A.U. after   31 cycles
 E2 =    -0.1028822787D+01 EUMP2 =    -0.13471490081161D+04
 CCSD(T)
 CCSD(T)= -0.13471339636D+04

 Unable to determine electronic state:  partially filled degenerate orbitals.
 Alpha  occ. eigenvalues -- -263.69468 -32.49914 -27.57715 -27.55545 -27.55545
 Alpha  occ. eigenvalues --  -20.51811  -4.39405  -2.96639  -2.91421  -2.91421
 Alpha  occ. eigenvalues --   -1.23394  -0.72564  -0.72564  -0.63528  -0.59147
 Alpha  occ. eigenvalues --   -0.57822  -0.41880  -0.41880  -0.32779
 Alpha virt. eigenvalues --    0.00407   0.02326   0.02326   0.03559   0.04364
 Alpha virt. eigenvalues --    0.07648   0.07648   0.09865   0.09894   0.09962
 Alpha virt. eigenvalues --    0.10404   0.10404   0.13364   0.16031   0.25500

 Mulliken charges and spin densities:
               1          2
     1  Fe   0.884815   3.776393
     2  O   -0.884815   0.223607
 Sum of Mulliken charges =  -0.00000   4.00000

 Dipole moment (field-independent basis, Debye):
    X=              0.0000    Y=              0.0000    Z=              4.7686  Tot=              4.7686
 Quadrupole moment (field-independent basis, Debye-Ang):
   XX=            -19.3900   YY=            -19.3900   ZZ=            -21.7688
   XY=              0.0000   XZ=              0.0000   YZ=              0.0000

 1\1\GINC-C412-083\SP\ROCCSD(T)-RW\Gen\Fe1O1(5)\GWANG18\28-Feb-2018\0\\
 #P ROCCSD(T)=(MaxCyc=150, Window=(7,0))/Gen SCF=(maxcycle=400) Integra
 l(DKHSO, NoXCTest) Pop=Regular MaxDisk=500GB\\FeO\\0,5\Fe,0,0.,0.,0.\O
 ,0,0.,0.,1.4\\Version=ES64L-G16RevA.03\HF=-1346.1201853\MP2=-1347.1490
 081\MP3=-1347.0332924\PUHF=-1346.1201853\PMP2-0=-1347.1490081\MP4SDQ=-
 1347.1233435\CCSD=-1347.0883106\CCSD(T)=-1347.1339636\RMSD=5.988e-09\P
 G=C*V [C*(O1Fe1)]\\@

 Normal termination of Gaussian 16 at Wed Feb 28 22:00:22 2018.
