 Gaussian 16, Revision A.03,
 Gaussian 16:  ES64L-G16RevA.03 25-Dec-2016

 ----------------------------------------------------------------------
 #P ROCCSD(T)=(maxcyc=150, Full, SaveAmplitudes, ReadAmplitudes)/Gen 5d
  7f SCF=(maxcycles=300, VShift=400) Integral(NoXCTest) MaxDisk=500GB P
 op=Full Pseudo=Read Guess=Read IOp(5/15=2)
 ----------------------------------------------------------------------

 ---
 MnO
 ---
 Symbolic Z-matrix:
 Charge =  0 Multiplicity = 6

                         Standard orientation:
 ---------------------------------------------------------------------
 Center     Atomic      Atomic             Coordinates (Angstroms)
 Number     Number       Type             X           Y           Z
 ---------------------------------------------------------------------
      1         25           0        0.000000    0.000000    0.412121
      2          8           0        0.000000    0.000000   -1.287879
 ---------------------------------------------------------------------

 SCF Done:  E(ROHF) =  -118.899586485     A.U. after   59 cycles
 E2 =    -0.8979855570D+00 EUMP2 =    -0.11979757204176D+03
 CCSD(T)
 CCSD(T)= -0.11982796900D+03

 The electronic state is 6-SG.
 Alpha  occ. eigenvalues --   -4.13495  -2.75839  -2.75839  -2.75231  -1.12050
 Alpha  occ. eigenvalues --   -0.64557  -0.64557  -0.63761  -0.63761  -0.59627
 Alpha  occ. eigenvalues --   -0.33929  -0.33929  -0.33861
 Alpha virt. eigenvalues --   -0.04543   0.01579   0.01579   0.01859   0.03844
 Alpha virt. eigenvalues --    0.06698   0.06698   0.08213   0.08443   0.08443
 Alpha virt. eigenvalues --    0.09607   0.09607   0.13218   0.14041   0.23051

 Mulliken charges and spin densities:
               1          2
     1  Mn   1.150499   4.893134
     2  O   -1.150499   0.106866
 Sum of Mulliken charges =  -0.00000   5.00000

 Dipole moment (field-independent basis, Debye):
    X=              0.0000    Y=              0.0000    Z=              9.0952  Tot=              9.0952
 Quadrupole moment (field-independent basis, Debye-Ang):
   XX=            -18.8599   YY=            -18.8599   ZZ=            -23.8582
   XY=              0.0000   XZ=              0.0000   YZ=              0.0000

 \\#P ROCCSD(T)=(maxcyc=150, Full, SaveAmplitudes, ReadAmplitudes)/Gen
 DQ=-119.7953556\CCSD=-119.7864338\CCSD(T)=-119.827969\RMSD=9.037e-09\P
 Normal termination of Gaussian 16 at Thu Apr 19 08:18:48 2018.
