 Gaussian 16, Revision A.03,
 Gaussian 16:  ES64L-G16RevA.03 25-Dec-2016

 ----------------------------------------------------------------------
 #P ROCCSD(T)=(MaxCyc=150, Full)/Gen SCF=(maxcycle=400) Integral(DKHSO,
  NoXCTest) Pop=Regular MaxDisk=500GB Guess=Read IOp(5/15=2)
 ----------------------------------------------------------------------

 ---
 CoO
 ---
 Symbolic Z-matrix:
 Charge =  0 Multiplicity = 4

                         Standard orientation:
 ---------------------------------------------------------------------
 Center     Atomic      Atomic             Coordinates (Angstroms)
 Number     Number       Type             X           Y           Z
 ---------------------------------------------------------------------
      1         27           0        0.000000    0.000000    0.297143
      2          8           0        0.000000    0.000000   -1.002857
 ---------------------------------------------------------------------

 SCF Done:  E(ROHF) =  -1466.54723170     A.U. after   22 cycles
 E2 =    -0.1599814201D+01 EUMP2 =    -0.14681470459023D+04
 CCSD(T)
 CCSD(T)= -0.14681151909D+04

 Unable to determine electronic state:  partially filled degenerate orbitals.
 Alpha  occ. eigenvalues -- -285.84758 -35.59776 -30.36378 -30.35938 -30.35938
 Alpha  occ. eigenvalues --  -20.57829  -4.83083  -3.28896  -3.24570  -3.24570
 Alpha  occ. eigenvalues --   -1.30963  -0.84956  -0.84956  -0.76693  -0.71673
 Alpha  occ. eigenvalues --   -0.70807  -0.47354  -0.47354  -0.34351
 Alpha virt. eigenvalues --   -0.00101   0.02836   0.02836   0.03658   0.04319
 Alpha virt. eigenvalues --    0.09105   0.09105   0.10719   0.11262   0.11287
 Alpha virt. eigenvalues --    0.11561   0.11561   0.13566   0.17443   0.25844

 Mulliken charges and spin densities:
               1          2
     1  Co   0.780999   2.700809
     2  O   -0.780999   0.299191
 Sum of Mulliken charges =  -0.00000   3.00000

 Dipole moment (field-independent basis, Debye):
    X=              0.0000    Y=              0.0000    Z=              3.7478  Tot=              3.7478
 Quadrupole moment (field-independent basis, Debye-Ang):
   XX=            -20.0195   YY=            -20.0195   ZZ=            -20.3758
   XY=              0.0000   XZ=              0.0000   YZ=              0.0000

 \\#P ROCCSD(T)=(MaxCyc=150, Full)/Gen SCF=(maxcycle=400) Integral(DKHS
 .1470459\MP4SDQ=-1468.0949998\CCSD=-1468.0632472\CCSD(T)=-1468.1151909
 Normal termination of Gaussian 16 at Sat Mar 31 14:16:47 2018.
