 Gaussian 16, Revision A.03,
 Gaussian 16:  ES64L-G16RevA.03 25-Dec-2016

 ----------------------------------------------------------------------
 #P ROCCSD(T)=(maxcyc=150, Full)/Gen 5d 7f SCF=(maxcycles=300) Integral
 (NoXCTest, DKHSO) MaxDisk=500GB Pop=Regular IOp(5/15=2) Guess=Read
 ----------------------------------------------------------------------

 ---
 CrH
 ---
 Symbolic Z-matrix:
 Charge =  0 Multiplicity = 6

                         Standard orientation:
 ---------------------------------------------------------------------
 Center     Atomic      Atomic             Coordinates (Angstroms)
 Number     Number       Type             X           Y           Z
 ---------------------------------------------------------------------
      1         24           0        0.000000    0.000000    0.052000
      2          1           0        0.000000    0.000000   -1.248000
 ---------------------------------------------------------------------

 SCF Done:  E(ROHF) =  -1050.14769594     A.U. after   32 cycles
 E2 =    -0.9540187822D+00 EUMP2 =    -0.10511017147207D+04
 CCSD(T)
 CCSD(T)= -0.10511189486D+04

 The electronic state is 6-SG.
 Alpha  occ. eigenvalues -- -222.13141 -26.72018 -22.35461 -22.35461 -22.35368
 Alpha  occ. eigenvalues --   -3.60225  -2.35535  -2.35535  -2.33584  -0.47403
 Alpha  occ. eigenvalues --   -0.47403  -0.44927  -0.44664  -0.44664  -0.25238
 Alpha virt. eigenvalues --    0.01679   0.01679   0.02019   0.02385   0.06105
 Alpha virt. eigenvalues --    0.06105   0.06142   0.07824   0.07824   0.08115
 Alpha virt. eigenvalues --    0.08115   0.08251   0.10032   0.19465   0.22021

 Mulliken charges and spin densities:
               1          2
     1  Cr   0.673146   5.014128
     2  H   -0.673146  -0.014128
 Sum of Mulliken charges =  -0.00000   5.00000

 Dipole moment (field-independent basis, Debye):
    X=              0.0000    Y=              0.0000    Z=              1.9197  Tot=              1.9197
 Quadrupole moment (field-independent basis, Debye-Ang):
   XX=            -17.0756   YY=            -17.0756   ZZ=            -20.1332
   XY=              0.0000   XZ=              0.0000   YZ=              0.0000

 \\#P ROCCSD(T)=(maxcyc=150, Full)/Gen 5d 7f SCF=(maxcycles=300) Integr
 Normal termination of Gaussian 16 at Tue Feb 13 17:59:36 2018.
