 Gaussian 16, Revision A.03,
 Gaussian 16:  ES64L-G16RevA.03 25-Dec-2016

 ----------------------------------------------------------------------
 #P ROCCSD(T)=(maxcyc=150, Full, SaveAmplitudes, ReadAmplitudes)/Gen 5d
  7f SCF=(maxcycles=300) Integral(NoXCTest) MaxDisk=500GB Pop=Regular P
 seudo=Read Guess=Read IOp(5/15=2)
 ----------------------------------------------------------------------

 ---
 CrO
 ---
 Symbolic Z-matrix:
 Charge =  0 Multiplicity = 5

                         Standard orientation:
 ---------------------------------------------------------------------
 Center     Atomic      Atomic             Coordinates (Angstroms)
 Number     Number       Type             X           Y           Z
 ---------------------------------------------------------------------
      1         24           0        0.000000    0.000000    0.350000
      2          8           0        0.000000    0.000000   -1.050000
 ---------------------------------------------------------------------

 SCF Done:  E(ROHF) =  -101.982067086     A.U. after   27 cycles
 E2 =    -0.8987322555D+00 EUMP2 =    -0.10288079934130D+03
 CCSD(T)
 CCSD(T)= -0.10289927718D+03

 Unable to determine electronic state:  an orbital has unidentified symmetry.
 Alpha  occ. eigenvalues --   -3.68990  -2.46484  -2.42241  -2.41319  -1.22112
 Alpha  occ. eigenvalues --   -0.65124  -0.56970  -0.53703  -0.53344  -0.51931
 Alpha  occ. eigenvalues --   -0.38649  -0.28718
 Alpha virt. eigenvalues --    0.01018   0.01875   0.02189   0.03047   0.04863
 Alpha virt. eigenvalues --    0.05811   0.06775   0.07667   0.07674   0.07969
 Alpha virt. eigenvalues --    0.08505   0.09163   0.12542   0.15813   0.17656

 Mulliken charges and spin densities:
               1          2
     1  Cr   0.984014   3.806603
     2  O   -0.984014   0.193397
 Sum of Mulliken charges =  -0.00000   4.00000

 Dipole moment (field-independent basis, Debye):
    X=              0.0000    Y=              0.0000    Z=              3.0984  Tot=              3.0984
 Quadrupole moment (field-independent basis, Debye-Ang):
   XX=            -20.9375   YY=            -19.6380   ZZ=            -24.2091
   XY=              0.0000   XZ=              0.0000   YZ=              0.0000

 \\#P ROCCSD(T)=(maxcyc=150, Full, SaveAmplitudes, ReadAmplitudes)/Gen
 -102.8535713\CCSD(T)=-102.8992772\RMSD=7.199e-09\PG=C*V [C*(O1Cr1)]\\@
 Normal termination of Gaussian 16 at Mon Mar 12 14:31:14 2018.
