 Gaussian 16, Revision A.03,
 Gaussian 16:  ES64L-G16RevA.03 25-Dec-2016

 ----------------------------------------------------------------------
 #P ROCCSD(T)=(maxcyc=150, Full, SaveAmplitudes, ReadAmplitudes)/Gen 5d
  7f SCF=(maxcycles=300) Integral(NoXCTest) MaxDisk=500GB Pop=Regular P
 seudo=Read Guess=Read IOp(5/15=2)
 ----------------------------------------------------------------------

 ---
 ScO
 ---
 Symbolic Z-matrix:
 Charge =  0 Multiplicity = 2

                         Standard orientation:
 ---------------------------------------------------------------------
 Center     Atomic      Atomic             Coordinates (Angstroms)
 Number     Number       Type             X           Y           Z
 ---------------------------------------------------------------------
      1         21           0        0.000000    0.000000    0.551724
      2          8           0        0.000000    0.000000   -1.448276
 ---------------------------------------------------------------------

 SCF Done:  E(ROHF) =  -62.0097905677     A.U. after   20 cycles
 E2 =    -0.7056631334D+00 EUMP2 =    -0.62715453701136D+02
 CCSD(T)
 CCSD(T)= -0.62748081238D+02

 The electronic state is 2-SG.
 Alpha  occ. eigenvalues --   -2.79310  -1.70131  -1.70131  -1.69581  -1.08070
 Alpha  occ. eigenvalues --   -0.38952  -0.34654  -0.34654  -0.28374
 Alpha virt. eigenvalues --   -0.01366  -0.01366   0.00579   0.01721   0.02812
 Alpha virt. eigenvalues --    0.02812   0.03119   0.03119   0.03725   0.04381
 Alpha virt. eigenvalues --    0.04381   0.04991   0.05156   0.05156   0.09672

 Mulliken charges and spin densities:
               1          2
     1  Sc   1.193100   0.977415
     2  O   -1.193100   0.022585
 Sum of Mulliken charges =  -0.00000   1.00000

 Dipole moment (field-independent basis, Debye):
    X=              0.0000    Y=              0.0000    Z=              7.4475  Tot=              7.4475
 Quadrupole moment (field-independent basis, Debye-Ang):
   XX=            -22.0620   YY=            -22.0620   ZZ=            -35.0366
   XY=              0.0000   XZ=              0.0000   YZ=              0.0000

 \\#P ROCCSD(T)=(maxcyc=150, Full, SaveAmplitudes, ReadAmplitudes)/Gen
 1\CCSD=-62.6969487\CCSD(T)=-62.7480812\RMSD=4.623e-09\PG=C*V [C*(O1Sc1
 Normal termination of Gaussian 16 at Wed Feb 28 19:01:20 2018.
