 Gaussian 16, Revision A.03,
 Gaussian 16:  ES64L-G16RevA.03 25-Dec-2016

 ----------------------------------------------------------------------
 #P ROCCSD(T)=(maxcyc=150, Full, SaveAmplitudes, ReadAmplitudes)/Gen 5d
  7f SCF=(maxcycles=300) Integral(NoXCTest) MaxDisk=500GB Pop=Regular P
 seudo=Read Guess=Read
 ----------------------------------------------------------------------

 ---
 MnO
 ---
 Symbolic Z-matrix:
 Charge =  0 Multiplicity = 6

                         Standard orientation:
 ---------------------------------------------------------------------
 Center     Atomic      Atomic             Coordinates (Angstroms)
 Number     Number       Type             X           Y           Z
 ---------------------------------------------------------------------
      1         25           0        0.000000    0.000000    0.460606
      2          8           0        0.000000    0.000000   -1.439394
 ---------------------------------------------------------------------

 SCF Done:  E(ROHF) =  -119.126715662     A.U. after   23 cycles
 E2 =    -0.9256961737D+00 EUMP2 =    -0.12005241183616D+03
 CCSD(T)
 CCSD(T)= -0.12007720938D+03

 The electronic state is 6-SG.
 Alpha  occ. eigenvalues --   -4.25435  -2.81195  -2.81195  -2.80712  -1.09395
 Alpha  occ. eigenvalues --   -0.66049  -0.66049  -0.65965  -0.65965  -0.63432
 Alpha  occ. eigenvalues --   -0.34707  -0.34707  -0.32305
 Alpha virt. eigenvalues --   -0.05343   0.01094   0.01094   0.01390   0.03343
 Alpha virt. eigenvalues --    0.05528   0.05528   0.05690   0.05690   0.06366
 Alpha virt. eigenvalues --    0.06754   0.06754   0.10778   0.12572   0.17869

 Mulliken charges and spin densities:
               1          2
     1  Mn   1.057156   4.960517
     2  O   -1.057156   0.039483
 Sum of Mulliken charges =  -0.00000   5.00000

 Dipole moment (field-independent basis, Debye):
    X=              0.0000    Y=              0.0000    Z=              9.3020  Tot=              9.3020
 Quadrupole moment (field-independent basis, Debye-Ang):
   XX=            -19.3584   YY=            -19.3584   ZZ=            -25.2835
   XY=              0.0000   XZ=              0.0000   YZ=              0.0000

 \\#P ROCCSD(T)=(maxcyc=150, Full, SaveAmplitudes, ReadAmplitudes)/Gen
 9.1267157\PMP2-0=-120.0524118\CCSD=-120.0357795\CCSD(T)=-120.0772094\R
 Normal termination of Gaussian 16 at Wed Mar 14 09:11:25 2018.
