 Gaussian 16, Revision A.03,
 Gaussian 16:  ES64L-G16RevA.03 25-Dec-2016

 ----------------------------------------------------------------------
 #P ROCCSD(T)=(maxcyc=150, Full)/Gen 5d 7f SCF=(maxcycles=300, NoVarAcc
 , VShift=100) MaxDisk=100GB Pop=Regular Pseudo=Read Guess=Permute IOp(
 5/15=2)
 ----------------------------------------------------------------------

 --
 Cr
 --
 Symbolic Z-matrix:
 Charge =  0 Multiplicity = 7

                         Standard orientation:
 ---------------------------------------------------------------------
 Center     Atomic      Atomic             Coordinates (Angstroms)
 Number     Number       Type             X           Y           Z
 ---------------------------------------------------------------------
      1         24           0        0.000000    0.000000    0.000000
 ---------------------------------------------------------------------

 SCF Done:  E(ROHF) =  -86.2150547006     A.U. after   33 cycles
 E2 =    -0.5515939828D+00 EUMP2 =    -0.86766648683396D+02
 CCSD(T)
 CCSD(T)= -0.86776759700D+02

 The electronic state is 7-A1G.
 Alpha  occ. eigenvalues --   -3.59600  -2.33029  -2.33029  -2.33029  -0.36895
 Alpha  occ. eigenvalues --   -0.36895  -0.36895  -0.36895  -0.36895  -0.22568
 Alpha virt. eigenvalues --    0.01710   0.01710   0.01710   0.02420   0.05523
 Alpha virt. eigenvalues --    0.05523   0.05523   0.05523   0.05523   0.05928
 Alpha virt. eigenvalues --    0.05928   0.05928   0.12731   0.17955   0.17955

 Mulliken charges and spin densities:
               1          2
     1  Cr  -0.000000   6.000000
 Sum of Mulliken charges =  -0.00000   6.00000

 Dipole moment (field-independent basis, Debye):
    X=              0.0000    Y=              0.0000    Z=              0.0000  Tot=              0.0000
 Quadrupole moment (field-independent basis, Debye-Ang):
   XX=            -16.4673   YY=            -16.4673   ZZ=            -16.4673
   XY=              0.0000   XZ=              0.0000   YZ=             -0.0000

 1\1\GINC-C455-002\SP\ROCCSD(T)-Full\Gen\Cr1(7)\AANNABE\12-Mar-2018\2\\
 #P ROCCSD(T)=(maxcyc=150, Full)/Gen 5d 7f SCF=(maxcycles=300, NoVarAcc
 , VShift=100) MaxDisk=100GB Pop=Regular Pseudo=Read Guess=Permute IOp(
 5/15=2)\\Cr\\0,7\Cr,0,0.,0.,0.\\1,2,3,4,10,5,6,7,8,9\\Version=ES64L-G1
 6RevA.03\State=7-A1G\HF=-86.2150547\MP2=-86.7666487\MP3=-86.7573478\PU
 HF=-86.2150547\PMP2-0=-86.7666487\MP4SDQ=-86.7607097\CCSD=-86.759715\C
 CSD(T)=-86.7767597\RMSD=8.797e-09\PG=OH [O(Cr1)]\\@

 Normal termination of Gaussian 16 at Mon Mar 12 16:47:32 2018.
