 Gaussian 16, Revision A.03,
 Gaussian 16:  ES64L-G16RevA.03 25-Dec-2016

 ----------------------------------------------------------------------
 #P ROCCSD(T)=(maxcyc=150, Full)/Gen 5d 7f SCF=(maxcycles=300) Integral
 (NoXCTest) MaxDisk=500GB Pop=Regular Pseudo=Read Guess=Read
 ----------------------------------------------------------------------

 ---
 CrH
 ---
 Symbolic Z-matrix:
 Charge =  0 Multiplicity = 6

                         Standard orientation:
 ---------------------------------------------------------------------
 Center     Atomic      Atomic             Coordinates (Angstroms)
 Number     Number       Type             X           Y           Z
 ---------------------------------------------------------------------
      1         24           0        0.000000    0.000000    0.048000
      2          1           0        0.000000    0.000000   -1.152000
 ---------------------------------------------------------------------

 SCF Done:  E(ROHF) =  -86.5979954292     A.U. after   28 cycles
 E2 =    -0.6209730226D+00 EUMP2 =    -0.87218968451823D+02
 CCSD(T)
 CCSD(T)= -0.87237578818D+02

 The electronic state is 6-SG.
 Alpha  occ. eigenvalues --   -3.63227  -2.38389  -2.38389  -2.37328  -0.46370
 Alpha  occ. eigenvalues --   -0.45170  -0.45170  -0.42462  -0.42462  -0.25228
 Alpha virt. eigenvalues --    0.01545   0.01671   0.01671   0.02090   0.04438
 Alpha virt. eigenvalues --    0.05041   0.05041   0.05075   0.05075   0.05596
 Alpha virt. eigenvalues --    0.05596   0.05657   0.08235   0.12367   0.14956

 Mulliken charges and spin densities:
               1          2
     1  Cr   0.371117   4.974632
     2  H   -0.371117   0.025368
 Sum of Mulliken charges =  -0.00000   5.00000

 Dipole moment (field-independent basis, Debye):
    X=              0.0000    Y=              0.0000    Z=              2.1404  Tot=              2.1404
 Quadrupole moment (field-independent basis, Debye-Ang):
   XX=            -16.6114   YY=            -16.6114   ZZ=            -18.6147
   XY=              0.0000   XZ=              0.0000   YZ=              0.0000

 \\#P ROCCSD(T)=(maxcyc=150, Full)/Gen 5d 7f SCF=(maxcycles=300) Integr
 7.2189685\MP4SDQ=-87.214517\CCSD=-87.2158143\CCSD(T)=-87.2375788\RMSD=
 Normal termination of Gaussian 16 at Mon Feb 12 21:57:55 2018.
