 Gaussian 16, Revision A.03,
 Gaussian 16:  ES64L-G16RevA.03 25-Dec-2016

 ----------------------------------------------------------------------
 #P ROCCSD(T)=(MaxCyc=150, Full)/Gen SCF=(maxcycle=400) Pseudo=Read Int
 egral(NoXCTest) Pop=Regular MaxDisk=500GB Guess=Read IOp(5/15=2)
 ----------------------------------------------------------------------

 ---
 CuH
 ---
 Symbolic Z-matrix:
 Charge =  0 Multiplicity = 1

                         Standard orientation:
 ---------------------------------------------------------------------
 Center     Atomic      Atomic             Coordinates (Angstroms)
 Number     Number       Type             X           Y           Z
 ---------------------------------------------------------------------
      1         29           0        0.000000    0.000000    0.043333
      2          1           0        0.000000    0.000000   -1.256667
 ---------------------------------------------------------------------

 SCF Done:  E(ROHF) =  -197.105181178     A.U. after    8 cycles
 E2 =    -0.1167683389D+01 EUMP2 =    -0.19827286456720D+03
 CCSD(T)
 CCSD(T)= -0.19818845678D+03

 The electronic state is 1-SG.
 Alpha  occ. eigenvalues --   -5.26398  -3.53472  -3.52554  -3.52554  -0.53454
 Alpha  occ. eigenvalues --   -0.51234  -0.51234  -0.50447  -0.50447  -0.33876
 Alpha virt. eigenvalues --    0.00346   0.02583   0.02583   0.02827   0.04555
 Alpha virt. eigenvalues --    0.07833   0.08608   0.08608   0.12013   0.12013
 Alpha virt. eigenvalues --    0.12048   0.12570   0.12570   0.15248   0.18711

 Mulliken charges and spin densities:
               1          2
     1  Cu   0.341700   0.000000
     2  H   -0.341700   0.000000
 Sum of Mulliken charges =  -0.00000   0.00000

 Dipole moment (field-independent basis, Debye):
    X=              0.0000    Y=              0.0000    Z=              3.5909  Tot=              3.5909
 Quadrupole moment (field-independent basis, Debye-Ang):
   XX=            -13.7962   YY=            -13.7962   ZZ=            -15.0267
   XY=              0.0000   XZ=              0.0000   YZ=              0.0000

 P ROCCSD(T)=(MaxCyc=150, Full)/Gen SCF=(maxcycle=400) Pseudo=Read Inte
 2-0=-198.2728646\MP4SDQ=-198.2208071\CCSD=-198.1479763\CCSD(T)=-198.18
 Normal termination of Gaussian 16 at Thu May  3 11:07:30 2018.
