 Gaussian 16, Revision A.03,
 Gaussian 16:  ES64L-G16RevA.03 25-Dec-2016

 ----------------------------------------------------------------------
 #P ROCCSD(T)=(MaxCyc=150, Full)/Gen SCF=(maxcycle=400, vshift=200) Pse
 udo=Read Integral(NoXCTest) Pop=Regular MaxDisk=500GB
 ----------------------------------------------------------------------

 ---
 FeO
 ---
 Symbolic Z-matrix:
 Charge =  0 Multiplicity = 5

                         Standard orientation:
 ---------------------------------------------------------------------
 Center     Atomic      Atomic             Coordinates (Angstroms)
 Number     Number       Type             X           Y           Z
 ---------------------------------------------------------------------
      1         26           0        0.000000    0.000000    0.329412
      2          8           0        0.000000    0.000000   -1.070588
 ---------------------------------------------------------------------

 SCF Done:  E(ROHF) =  -138.247876372     A.U. after   32 cycles
 E2 =    -0.1091323909D+01 EUMP2 =    -0.13933920028031D+03
 CCSD(T)
 CCSD(T)= -0.13933204231D+03

 Unable to determine electronic state:  partially filled degenerate orbitals.
 Alpha  occ. eigenvalues --   -4.42829  -2.98292  -2.93106  -2.93106  -1.24654
 Alpha  occ. eigenvalues --   -0.72465  -0.72465  -0.63450  -0.59108  -0.58000
 Alpha  occ. eigenvalues --   -0.41765  -0.41765  -0.32812
 Alpha virt. eigenvalues --    0.00237   0.02087   0.02087   0.03305   0.03975
 Alpha virt. eigenvalues --    0.06379   0.06379   0.06626   0.06636   0.06793
 Alpha virt. eigenvalues --    0.07890   0.07890   0.11996   0.14827   0.19385

 Mulliken charges and spin densities:
               1          2
     1  Fe   0.990704   3.760963
     2  O   -0.990704   0.239037
 Sum of Mulliken charges =  -0.00000   4.00000

 Dipole moment (field-independent basis, Debye):
    X=              0.0000    Y=              0.0000    Z=              4.8611  Tot=              4.8611
 Quadrupole moment (field-independent basis, Debye-Ang):
   XX=            -19.0398   YY=            -19.0398   ZZ=            -21.3425
   XY=              0.0000   XZ=              0.0000   YZ=              0.0000

 \\#P ROCCSD(T)=(MaxCyc=150, Full)/Gen SCF=(maxcycle=400, vshift=200) P
 4SDQ=-139.3130334\CCSD=-139.283028\CCSD(T)=-139.3320423\RMSD=6.842e-09
 Normal termination of Gaussian 16 at Wed Apr 18 07:30:07 2018.
