 Gaussian 16, Revision A.03,
 Gaussian 16:  ES64L-G16RevA.03 25-Dec-2016

 ----------------------------------------------------------------------
 #P ROCCSD(T)=(MaxCyc=150, Full)/Gen SCF=(maxcycle=400, vshift=200) Pse
 udo=Read Integral(NoXCTest) Pop=Regular MaxDisk=500GB
 ----------------------------------------------------------------------

 ---
 FeO
 ---
 Symbolic Z-matrix:
 Charge =  0 Multiplicity = 5

                         Standard orientation:
 ---------------------------------------------------------------------
 Center     Atomic      Atomic             Coordinates (Angstroms)
 Number     Number       Type             X           Y           Z
 ---------------------------------------------------------------------
      1         26           0        0.000000    0.000000    0.329412
      2          8           0        0.000000    0.000000   -1.070588
 ---------------------------------------------------------------------

 SCF Done:  E(ROHF) =  -138.244611953     A.U. after   31 cycles
 E2 =    -0.1043384028D+01 EUMP2 =    -0.13928799598092D+03
 CCSD(T)
 CCSD(T)= -0.13928312858D+03

 Unable to determine electronic state:  partially filled degenerate orbitals.
 Alpha  occ. eigenvalues --   -4.42842  -2.98328  -2.93118  -2.93118  -1.24699
 Alpha  occ. eigenvalues --   -0.72460  -0.72460  -0.63451  -0.59104  -0.58019
 Alpha  occ. eigenvalues --   -0.41750  -0.41750  -0.32833
 Alpha virt. eigenvalues --    0.00272   0.02332   0.02332   0.03580   0.04276
 Alpha virt. eigenvalues --    0.07686   0.07686   0.09871   0.09901   0.09902
 Alpha virt. eigenvalues --    0.10426   0.10426   0.13404   0.16023   0.25571

 Mulliken charges and spin densities:
               1          2
     1  Fe   0.888875   3.767583
     2  O   -0.888875   0.232417
 Sum of Mulliken charges =  -0.00000   4.00000

 Dipole moment (field-independent basis, Debye):
    X=              0.0000    Y=              0.0000    Z=              4.8781  Tot=              4.8781
 Quadrupole moment (field-independent basis, Debye-Ang):
   XX=            -19.0378   YY=            -19.0378   ZZ=            -21.3557
   XY=              0.0000   XZ=              0.0000   YZ=              0.0000

 \\#P ROCCSD(T)=(MaxCyc=150, Full)/Gen SCF=(maxcycle=400, vshift=200) P
 =-139.2667821\CCSD=-139.2362733\CCSD(T)=-139.2831286\RMSD=9.161e-09\PG
 Normal termination of Gaussian 16 at Wed Apr 18 05:32:49 2018.
