 Gaussian 16, Revision A.03,
 Gaussian 16:  ES64L-G16RevA.03 25-Dec-2016

 ----------------------------------------------------------------------
 #P ROCCSD(T)=(maxcyc=150, Full)/Gen 5d 7f SCF=(maxcycles=300, NoVarAcc
 , VShift=300) MaxDisk=100GB Pop=Regular Pseudo=Read Guess=Read IOp(5/1
 5=2)
 ----------------------------------------------------------------------

 --
 Cr
 --
 Symbolic Z-matrix:
 Charge =  0 Multiplicity = 7

                         Standard orientation:
 ---------------------------------------------------------------------
 Center     Atomic      Atomic             Coordinates (Angstroms)
 Number     Number       Type             X           Y           Z
 ---------------------------------------------------------------------
      1         24           0        0.000000    0.000000    0.000000
 ---------------------------------------------------------------------

 SCF Done:  E(ROHF) =  -86.1894421245     A.U. after   22 cycles
 E2 =    -0.5503338545D+00 EUMP2 =    -0.86739775979026D+02
 CCSD(T)
 CCSD(T)= -0.86750514617D+02

 The electronic state is 7-A1G.
 Alpha  occ. eigenvalues --   -3.57925  -2.32469  -2.32469  -2.32469  -0.36830
 Alpha  occ. eigenvalues --   -0.36830  -0.36830  -0.36830  -0.36830  -0.22648
 Alpha virt. eigenvalues --    0.01714   0.01714   0.01714   0.02415   0.05525
 Alpha virt. eigenvalues --    0.05525   0.05525   0.05525   0.05525   0.05927
 Alpha virt. eigenvalues --    0.05927   0.05927   0.12713   0.17964   0.17964

 Mulliken charges and spin densities:
               1          2
     1  Cr  -0.000000   6.000000
 Sum of Mulliken charges =  -0.00000   6.00000

 Dipole moment (field-independent basis, Debye):
    X=              0.0000    Y=              0.0000    Z=              0.0000  Tot=              0.0000
 Quadrupole moment (field-independent basis, Debye-Ang):
   XX=            -16.4302   YY=            -16.4302   ZZ=            -16.4302
   XY=              0.0000   XZ=             -0.0000   YZ=             -0.0000

 1\1\GINC-C452-094\SP\ROCCSD(T)-Full\Gen\Cr1(7)\AANNABE\13-Mar-2018\0\\
 #P ROCCSD(T)=(maxcyc=150, Full)/Gen 5d 7f SCF=(maxcycles=300, NoVarAcc
 , VShift=300) MaxDisk=100GB Pop=Regular Pseudo=Read Guess=Read IOp(5/1
 5=2)\\Cr\\0,7\Cr,0,0.,0.,0.\\Version=ES64L-G16RevA.03\State=7-A1G\HF=-
 86.1894421\MP2=-86.739776\MP3=-86.7313908\PUHF=-86.1894421\PMP2-0=-86.
 739776\MP4SDQ=-86.7345158\CCSD=-86.7335838\CCSD(T)=-86.7505146\RMSD=9.
 924e-09\PG=OH [O(Cr1)]\\@

 Normal termination of Gaussian 16 at Tue Mar 13 12:17:30 2018.
