 Gaussian 16, Revision A.03,
 Gaussian 16:  ES64L-G16RevA.03 25-Dec-2016

 ----------------------------------------------------------------------
 #P ROCCSD(T)=(MaxCyc=150, Full)/Gen SCF=(maxcycle=400) Pseudo=Read Int
 egral(NoXCTest) Pop=Regular MaxDisk=500GB
 ----------------------------------------------------------------------

 ---
 FeO
 ---
 Symbolic Z-matrix:
 Charge =  0 Multiplicity = 5

                         Standard orientation:
 ---------------------------------------------------------------------
 Center     Atomic      Atomic             Coordinates (Angstroms)
 Number     Number       Type             X           Y           Z
 ---------------------------------------------------------------------
      1         26           0        0.000000    0.000000    0.329412
      2          8           0        0.000000    0.000000   -1.070588
 ---------------------------------------------------------------------

 SCF Done:  E(ROHF) =  -138.778561752     A.U. after   33 cycles
 E2 =    -0.1044891263D+01 EUMP2 =    -0.13982345301545D+03
 CCSD(T)
 CCSD(T)= -0.13981806600D+03

 Unable to determine electronic state:  partially filled degenerate orbitals.
 Alpha  occ. eigenvalues --   -4.47646  -2.98060  -2.92720  -2.92720  -1.24603
 Alpha  occ. eigenvalues --   -0.72465  -0.72465  -0.63638  -0.59240  -0.58005
 Alpha  occ. eigenvalues --   -0.41522  -0.41522  -0.33046
 Alpha virt. eigenvalues --    0.00171   0.02333   0.02333   0.03611   0.04243
 Alpha virt. eigenvalues --    0.07724   0.07724   0.09842   0.09875   0.09903
 Alpha virt. eigenvalues --    0.10452   0.10452   0.13453   0.16037   0.25676

 Mulliken charges and spin densities:
               1          2
     1  Fe   0.897510   3.767520
     2  O   -0.897510   0.232480
 Sum of Mulliken charges =  -0.00000   4.00000

 Dipole moment (field-independent basis, Debye):
    X=              0.0000    Y=              0.0000    Z=              5.0223  Tot=              5.0223
 Quadrupole moment (field-independent basis, Debye-Ang):
   XX=            -18.8399   YY=            -18.8399   ZZ=            -21.1544
   XY=              0.0000   XZ=              0.0000   YZ=              0.0000

 \\#P ROCCSD(T)=(MaxCyc=150, Full)/Gen SCF=(maxcycle=400) Pseudo=Read I
 952\CCSD=-139.7711664\CCSD(T)=-139.818066\RMSD=7.846e-09\PG=C*V [C*(O1
 Normal termination of Gaussian 16 at Sun Mar 25 07:18:34 2018.
