 Gaussian 16, Revision A.03,
 Gaussian 16:  ES64L-G16RevA.03 25-Dec-2016

 ----------------------------------------------------------------------
 #P ROCCSD(T)=(MaxCyc=150, Full)/Gen SCF=(maxcycle=400) Pseudo=Read Int
 egral(NoXCTest) Pop=Regular MaxDisk=500GB
 ----------------------------------------------------------------------

 ---
 FeO
 ---
 Symbolic Z-matrix:
 Charge =  0 Multiplicity = 5

                         Standard orientation:
 ---------------------------------------------------------------------
 Center     Atomic      Atomic             Coordinates (Angstroms)
 Number     Number       Type             X           Y           Z
 ---------------------------------------------------------------------
      1         26           0        0.000000    0.000000    0.329412
      2          8           0        0.000000    0.000000   -1.070588
 ---------------------------------------------------------------------

 SCF Done:  E(ROHF) =  -138.782491012     A.U. after   35 cycles
 E2 =    -0.1092722377D+01 EUMP2 =    -0.13987521338919D+03
 CCSD(T)
 CCSD(T)= -0.13986752549D+03

 Unable to determine electronic state:  partially filled degenerate orbitals.
 Alpha  occ. eigenvalues --   -4.47637  -2.98025  -2.92710  -2.92710  -1.24547
 Alpha  occ. eigenvalues --   -0.72472  -0.72472  -0.63639  -0.59245  -0.57983
 Alpha  occ. eigenvalues --   -0.41541  -0.41541  -0.33026
 Alpha virt. eigenvalues --    0.00138   0.02085   0.02085   0.03328   0.03945
 Alpha virt. eigenvalues --    0.06396   0.06396   0.06626   0.06636   0.06773
 Alpha virt. eigenvalues --    0.07927   0.07927   0.12019   0.14852   0.19432

 Mulliken charges and spin densities:
               1          2
     1  Fe   1.002056   3.761002
     2  O   -1.002056   0.238998
 Sum of Mulliken charges =  -0.00000   4.00000

 Dipole moment (field-independent basis, Debye):
    X=              0.0000    Y=              0.0000    Z=              5.0055  Tot=              5.0055
 Quadrupole moment (field-independent basis, Debye-Ang):
   XX=            -18.8414   YY=            -18.8414   ZZ=            -21.1410
   XY=              0.0000   XZ=              0.0000   YZ=              0.0000

 \\#P ROCCSD(T)=(MaxCyc=150, Full)/Gen SCF=(maxcycle=400) Pseudo=Read I
 51\CCSD=-139.8184802\CCSD(T)=-139.8675255\RMSD=2.700e-09\PG=C*V [C*(O1
 Normal termination of Gaussian 16 at Sun Mar 25 09:11:27 2018.
