 Gaussian 16, Revision A.03,
 Gaussian 16:  ES64L-G16RevA.03 25-Dec-2016

 ----------------------------------------------------------------------
 #P ROCCSD(T)=(MaxCyc=150, Full)/Gen SCF=(maxcycle=400) Integral(DKHSO,
  NoXCTest) Pop=Regular MaxDisk=500GB Guess=Read IOp(5/15=2)
 ----------------------------------------------------------------------

 ---
 FeH
 ---
 Symbolic Z-matrix:
 Charge =  0 Multiplicity = 4

                         Standard orientation:
 ---------------------------------------------------------------------
 Center     Atomic      Atomic             Coordinates (Angstroms)
 Number     Number       Type             X           Y           Z
 ---------------------------------------------------------------------
      1         26           0        0.000000    0.000000    0.062963
      2          1           0        0.000000    0.000000   -1.637037
 ---------------------------------------------------------------------

 SCF Done:  E(ROHF) =  -1271.82150001     A.U. after   46 cycles
 E2 =    -0.1210287584D+01 EUMP2 =    -0.12730317875970D+04
 CCSD(T)
 CCSD(T)= -0.12730171426D+04

 Unable to determine electronic state:  an orbital has unidentified symmetry.
 Alpha  occ. eigenvalues -- -263.52988 -32.30346 -27.37231 -27.37231 -27.37099
 Alpha  occ. eigenvalues --   -4.20084  -2.75149  -2.74618  -2.74618  -0.49176
 Alpha  occ. eigenvalues --   -0.49176  -0.48656  -0.43685  -0.43424  -0.31930
 Alpha virt. eigenvalues --   -0.00652   0.02169   0.02169   0.03013   0.03750
 Alpha virt. eigenvalues --    0.06225   0.06748   0.06762   0.06869   0.06869
 Alpha virt. eigenvalues --    0.07736   0.07736   0.10021   0.16064   0.17843

 Mulliken charges and spin densities:
               1          2
     1  Fe   0.329393   2.997439
     2  H   -0.329393   0.002561
 Sum of Mulliken charges =  -0.00000   3.00000

 Dipole moment (field-independent basis, Debye):
    X=             -0.0000    Y=             -0.0000    Z=              4.6952  Tot=              4.6952
 Quadrupole moment (field-independent basis, Debye-Ang):
   XX=            -15.7320   YY=            -15.7320   ZZ=            -18.4717
   XY=             -0.0000   XZ=              0.0000   YZ=             -0.0000

 \\#P ROCCSD(T)=(MaxCyc=150, Full)/Gen SCF=(maxcycle=400) Integral(DKHS
 76\MP4SDQ=-1272.996728\CCSD=-1272.9867664\CCSD(T)=-1273.0171426\RMSD=6
 Normal termination of Gaussian 16 at Wed Mar  7 16:24:11 2018.
