 Gaussian 16, Revision A.03,
 Gaussian 16:  ES64L-G16RevA.03 25-Dec-2016

 ----------------------------------------------------------------------
 #P ROCCSD(T)=(maxcyc=150, Full, SaveAmplitudes, ReadAmplitudes)/Gen 5d
  7f SCF=(maxcycles=300) Integral(NoXCTest) MaxDisk=500GB Pop=Regular P
 seudo=Read Guess=Read IOp(5/15=2)
 ----------------------------------------------------------------------

 ---
 MnO
 ---
 Symbolic Z-matrix:
 Charge =  0 Multiplicity = 6

                         Standard orientation:
 ---------------------------------------------------------------------
 Center     Atomic      Atomic             Coordinates (Angstroms)
 Number     Number       Type             X           Y           Z
 ---------------------------------------------------------------------
      1         25           0        0.000000    0.000000    0.387879
      2          8           0        0.000000    0.000000   -1.212121
 ---------------------------------------------------------------------

 SCF Done:  E(ROHF) =  -119.365654515     A.U. after   31 cycles
 E2 =    -0.9248784160D+00 EUMP2 =    -0.12029053293118D+03
 CCSD(T)
 CCSD(T)= -0.12031925080D+03

 The electronic state is 6-SG.
 Alpha  occ. eigenvalues --   -4.08004  -2.74140  -2.74140  -2.73429  -1.12618
 Alpha  occ. eigenvalues --   -0.64182  -0.64182  -0.62410  -0.62410  -0.56934
 Alpha  occ. eigenvalues --   -0.34876  -0.34876  -0.34134
 Alpha virt. eigenvalues --   -0.03588   0.01774   0.01774   0.02178   0.03840
 Alpha virt. eigenvalues --    0.06897   0.06897   0.08290   0.08551   0.08551
 Alpha virt. eigenvalues --    0.09686   0.09686   0.13586   0.13947   0.23176

 Mulliken charges and spin densities:
               1          2
     1  Mn   1.145941   4.863622
     2  O   -1.145941   0.136378
 Sum of Mulliken charges =  -0.00000   5.00000

 Dipole moment (field-independent basis, Debye):
    X=              0.0000    Y=              0.0000    Z=              8.3756  Tot=              8.3756
 Quadrupole moment (field-independent basis, Debye-Ang):
   XX=            -18.7257   YY=            -18.7257   ZZ=            -22.8815
   XY=              0.0000   XZ=              0.0000   YZ=              0.0000

 \\#P ROCCSD(T)=(maxcyc=150, Full, SaveAmplitudes, ReadAmplitudes)/Gen
 .2861009\CCSD=-120.2772243\CCSD(T)=-120.3192508\RMSD=9.852e-09\PG=C*V
 Normal termination of Gaussian 16 at Tue Mar 13 12:36:00 2018.
