 Gaussian 16, Revision A.03,
 Gaussian 16:  ES64L-G16RevA.03 25-Dec-2016

 ----------------------------------------------------------------------
 #P ROCCSD(T)=(MaxCyc=150, Full)/Gen SCF=(maxcycle=400) Pseudo=Read Int
 egral(NoXCTest) Pop=Regular MaxDisk=500GB Guess=Read IOp(5/15=2)
 ----------------------------------------------------------------------

 ---
 CuH
 ---
 Symbolic Z-matrix:
 Charge =  0 Multiplicity = 1

                         Standard orientation:
 ---------------------------------------------------------------------
 Center     Atomic      Atomic             Coordinates (Angstroms)
 Number     Number       Type             X           Y           Z
 ---------------------------------------------------------------------
      1         29           0        0.000000    0.000000    0.043333
      2          1           0        0.000000    0.000000   -1.256667
 ---------------------------------------------------------------------

 SCF Done:  E(ROHF) =  -196.765094669     A.U. after    7 cycles
 E2 =    -0.1201556642D+01 EUMP2 =    -0.19796665131167D+03
 CCSD(T)
 CCSD(T)= -0.19787997539D+03

 The electronic state is 1-SG.
 Alpha  occ. eigenvalues --   -4.95210  -3.36528  -3.35580  -3.35580  -0.53223
 Alpha  occ. eigenvalues --   -0.51047  -0.51047  -0.50288  -0.50288  -0.33826
 Alpha virt. eigenvalues --    0.00334   0.02580   0.02580   0.02831   0.04549
 Alpha virt. eigenvalues --    0.07845   0.08593   0.08593   0.12011   0.12011
 Alpha virt. eigenvalues --    0.12041   0.12566   0.12566   0.15248   0.18708

 Mulliken charges and spin densities:
               1          2
     1  Cu   0.305265   0.000000
     2  H   -0.305265   0.000000
 Sum of Mulliken charges =  -0.00000   0.00000

 Dipole moment (field-independent basis, Debye):
    X=              0.0000    Y=              0.0000    Z=              3.6168  Tot=              3.6168
 Quadrupole moment (field-independent basis, Debye-Ang):
   XX=            -13.7166   YY=            -13.7166   ZZ=            -14.9834
   XY=              0.0000   XZ=              0.0000   YZ=              0.0000

 P ROCCSD(T)=(MaxCyc=150, Full)/Gen SCF=(maxcycle=400) Pseudo=Read Inte
 2-0=-197.9666513\MP4SDQ=-197.9172807\CCSD=-197.8385799\CCSD(T)=-197.87
 Normal termination of Gaussian 16 at Wed Apr  4 22:42:21 2018.
