 Gaussian 16, Revision A.03,
 Gaussian 16:  ES64L-G16RevA.03 25-Dec-2016

 ----------------------------------------------------------------------
 #P ROCCSD(T)=(MaxCyc=150, Full)/Gen SCF=(maxcycle=400) Pseudo=Read Int
 egral(NoXCTest) Pop=Regular MaxDisk=500GB Guess=Read IOp(5/15=2)
 ----------------------------------------------------------------------

 ---
 CuH
 ---
 Symbolic Z-matrix:
 Charge =  0 Multiplicity = 1

                         Standard orientation:
 ---------------------------------------------------------------------
 Center     Atomic      Atomic             Coordinates (Angstroms)
 Number     Number       Type             X           Y           Z
 ---------------------------------------------------------------------
      1         29           0        0.000000    0.000000    0.043333
      2          1           0        0.000000    0.000000   -1.256667
 ---------------------------------------------------------------------

 SCF Done:  E(ROHF) =  -196.761829763     A.U. after   13 cycles
 E2 =    -0.1125339601D+01 EUMP2 =    -0.19788716936427D+03
 CCSD(T)
 CCSD(T)= -0.19780432562D+03

 The electronic state is 1-SG.
 Alpha  occ. eigenvalues --   -4.95244  -3.36564  -3.35610  -3.35610  -0.53224
 Alpha  occ. eigenvalues --   -0.51038  -0.51038  -0.50277  -0.50277  -0.33822
 Alpha virt. eigenvalues --    0.00449   0.02956   0.02956   0.03426   0.05767
 Alpha virt. eigenvalues --    0.10079   0.10295   0.10295   0.17248   0.19414
 Alpha virt. eigenvalues --    0.19414   0.20521   0.20521   0.21947   0.25931

 Mulliken charges and spin densities:
               1          2
     1  Cu   0.342424   0.000000
     2  H   -0.342424   0.000000
 Sum of Mulliken charges =  -0.00000   0.00000

 Dipole moment (field-independent basis, Debye):
    X=              0.0000    Y=              0.0000    Z=              3.6289  Tot=              3.6289
 Quadrupole moment (field-independent basis, Debye-Ang):
   XX=            -13.7279   YY=            -13.7279   ZZ=            -14.9639
   XY=              0.0000   XZ=              0.0000   YZ=              0.0000

 P ROCCSD(T)=(MaxCyc=150, Full)/Gen SCF=(maxcycle=400) Pseudo=Read Inte
 2-0=-197.8871694\MP4SDQ=-197.8458282\CCSD=-197.7657322\CCSD(T)=-197.80
 Normal termination of Gaussian 16 at Wed Apr  4 19:00:35 2018.
