 Gaussian 16, Revision A.03,
 Gaussian 16:  ES64L-G16RevA.03 25-Dec-2016

 ----------------------------------------------------------------------
 #P ROCCSD(T)=(MaxCyc=150, Full)/Gen SCF=(maxcycle=400) Pseudo=Read Int
 egral(NoXCTest) Pop=Regular MaxDisk=500GB Guess=Read IOp(5/15=2)
 ----------------------------------------------------------------------

 ---
 CuH
 ---
 Symbolic Z-matrix:
 Charge =  0 Multiplicity = 1

                         Standard orientation:
 ---------------------------------------------------------------------
 Center     Atomic      Atomic             Coordinates (Angstroms)
 Number     Number       Type             X           Y           Z
 ---------------------------------------------------------------------
      1         29           0        0.000000    0.000000    0.043333
      2          1           0        0.000000    0.000000   -1.256667
 ---------------------------------------------------------------------

 SCF Done:  E(ROHF) =  -196.764946012     A.U. after   10 cycles
 E2 =    -0.1176949309D+01 EUMP2 =    -0.19794189532066D+03
 CCSD(T)
 CCSD(T)= -0.19785749357D+03

 The electronic state is 1-SG.
 Alpha  occ. eigenvalues --   -4.95207  -3.36527  -3.35579  -3.35579  -0.53223
 Alpha  occ. eigenvalues --   -0.51044  -0.51044  -0.50287  -0.50287  -0.33825
 Alpha virt. eigenvalues --    0.00424   0.02667   0.02667   0.03103   0.05366
 Alpha virt. eigenvalues --    0.08956   0.08956   0.09092   0.13439   0.13439
 Alpha virt. eigenvalues --    0.13446   0.13995   0.13995   0.20255   0.22576

 Mulliken charges and spin densities:
               1          2
     1  Cu   0.332152   0.000000
     2  H   -0.332152   0.000000
 Sum of Mulliken charges =   0.00000   0.00000

 Dipole moment (field-independent basis, Debye):
    X=              0.0000    Y=              0.0000    Z=              3.6185  Tot=              3.6185
 Quadrupole moment (field-independent basis, Debye-Ang):
   XX=            -13.7181   YY=            -13.7181   ZZ=            -14.9810
   XY=              0.0000   XZ=              0.0000   YZ=              0.0000

 P ROCCSD(T)=(MaxCyc=150, Full)/Gen SCF=(maxcycle=400) Pseudo=Read Inte
 0=-197.9418953\MP4SDQ=-197.8960849\CCSD=-197.8168488\CCSD(T)=-197.8574
 Normal termination of Gaussian 16 at Wed Apr  4 19:55:30 2018.
