 Gaussian 16, Revision A.03,
 Gaussian 16:  ES64L-G16RevA.03 25-Dec-2016

 ----------------------------------------------------------------------
 #P ROCCSD(T)=(maxcyc=150, Full)/Gen 5d 7f SCF=(maxcycles=300) Integral
 (NoXCTest) MaxDisk=500GB Pop=Regular Pseudo=Read IOp(5/15=2) Guess=Rea
 d
 ----------------------------------------------------------------------

 ---
 ScH
 ---
 Symbolic Z-matrix:
 Charge =  0 Multiplicity = 1

                         Standard orientation:
 ---------------------------------------------------------------------
 Center     Atomic      Atomic             Coordinates (Angstroms)
 Number     Number       Type             X           Y           Z
 ---------------------------------------------------------------------
      1         21           0        0.000000    0.000000    0.054545
      2          1           0        0.000000    0.000000   -1.145455
 ---------------------------------------------------------------------

 SCF Done:  E(ROHF) =  -46.6703703213     A.U. after   12 cycles
 E2 =    -0.4212598788D+00 EUMP2 =    -0.47091630200087D+02
 CCSD(T)
 CCSD(T)= -0.47131289200D+02

 The electronic state is 1-SG.
 Alpha  occ. eigenvalues --   -2.67878  -1.62881  -1.58311  -1.58311  -0.46809
 Alpha  occ. eigenvalues --   -0.21478
 Alpha virt. eigenvalues --    0.01371   0.01371   0.01478   0.02231   0.03470
 Alpha virt. eigenvalues --    0.03912   0.03912   0.03948   0.03948   0.04903
 Alpha virt. eigenvalues --    0.04926   0.04926   0.09320   0.10635   0.10635

 Mulliken charges and spin densities:
               1          2
     1  Sc   0.510151   0.000000
     2  H   -0.510151   0.000000
 Sum of Mulliken charges =  -0.00000   0.00000

 Dipole moment (field-independent basis, Debye):
    X=              0.0000    Y=              0.0000    Z=              0.7217  Tot=              0.7217
 Quadrupole moment (field-independent basis, Debye-Ang):
   XX=            -23.6455   YY=            -23.6455   ZZ=            -22.6062
   XY=              0.0000   XZ=              0.0000   YZ=              0.0000

 P ROCCSD(T)=(maxcyc=150, Full)/Gen 5d 7f SCF=(maxcycles=300) Integral(
 PMP2-0=-47.0916302\MP4SDQ=-47.1141752\CCSD=-47.113705\CCSD(T)=-47.1312
 Normal termination of Gaussian 16 at Tue Feb 13 18:45:23 2018.
