 Gaussian 16, Revision A.03,
 Gaussian 16:  ES64L-G16RevA.03 25-Dec-2016

 ----------------------------------------------------------------------
 #P ROCCSD(T)=(maxcyc=150, Full, SaveAmplitudes, ReadAmplitudes)/Gen 5d
  7f SCF=(maxcycles=300) Integral(NoXCTest) MaxDisk=500GB Pop=Regular P
 seudo=Read Guess=Read
 ----------------------------------------------------------------------

 ---
 CrO
 ---
 Symbolic Z-matrix:
 Charge =  0 Multiplicity = 5

                         Standard orientation:
 ---------------------------------------------------------------------
 Center     Atomic      Atomic             Coordinates (Angstroms)
 Number     Number       Type             X           Y           Z
 ---------------------------------------------------------------------
      1         24           0        0.000000    0.000000    0.350000
      2          8           0        0.000000    0.000000   -1.050000
 ---------------------------------------------------------------------

 SCF Done:  E(ROHF) =  -101.784823776     A.U. after   23 cycles
 E2 =    -0.9154518574D+00 EUMP2 =    -0.10270027563317D+03
 CCSD(T)
 CCSD(T)= -0.10271539345D+03

 Unable to determine electronic state:  an orbital has unidentified symmetry.
 Alpha  occ. eigenvalues --   -3.73655  -2.50150  -2.45948  -2.45301  -1.23820
 Alpha  occ. eigenvalues --   -0.65362  -0.56949  -0.53729  -0.53504  -0.52076
 Alpha  occ. eigenvalues --   -0.38553  -0.28481
 Alpha virt. eigenvalues --    0.01021   0.01607   0.02031   0.02729   0.04486
 Alpha virt. eigenvalues --    0.04905   0.05377   0.05378   0.05517   0.05723
 Alpha virt. eigenvalues --    0.06932   0.06953   0.10486   0.13629   0.14104

 Mulliken charges and spin densities:
               1          2
     1  Cr   0.934343   3.870604
     2  O   -0.934343   0.129396
 Sum of Mulliken charges =  -0.00000   4.00000

 Dipole moment (field-independent basis, Debye):
    X=              0.0000    Y=              0.0000    Z=              3.0723  Tot=              3.0723
 Quadrupole moment (field-independent basis, Debye-Ang):
   XX=            -21.0408   YY=            -19.7603   ZZ=            -24.1928
   XY=              0.0000   XZ=              0.0000   YZ=              0.0000

 \\#P ROCCSD(T)=(maxcyc=150, Full, SaveAmplitudes, ReadAmplitudes)/Gen
 MP2-0=-102.7002756\CCSD=-102.6690357\CCSD(T)=-102.7153935\RMSD=6.926e-
 Normal termination of Gaussian 16 at Fri Mar  9 17:52:54 2018.
