 Gaussian 16, Revision A.03,
 Gaussian 16:  ES64L-G16RevA.03 25-Dec-2016

 ----------------------------------------------------------------------
 #P ROCCSD(T)=(MaxCyc=150, FrzINGC)/Gen SCF=(maxcycle=400) Integral(DKH
 SO, NoXCTest) Pop=Regular MaxDisk=500GB Guess=Read IOp(5/15=2)
 ----------------------------------------------------------------------

 ---
 FeH
 ---
 Symbolic Z-matrix:
 Charge =  0 Multiplicity = 4

                         Standard orientation:
 ---------------------------------------------------------------------
 Center     Atomic      Atomic             Coordinates (Angstroms)
 Number     Number       Type             X           Y           Z
 ---------------------------------------------------------------------
      1         26           0        0.000000    0.000000    0.059259
      2          1           0        0.000000    0.000000   -1.540741
 ---------------------------------------------------------------------

 SCF Done:  E(ROHF) =  -1271.82092057     A.U. after    4 cycles
 E2 =    -0.7538794749D+00 EUMP2 =    -0.12725748000416D+04
 CCSD(T)
 CCSD(T)= -0.12725661620D+04

 Unable to determine electronic state:  an orbital has unidentified symmetry.
 Alpha  occ. eigenvalues -- -263.53541 -32.31117 -27.37938 -27.37938 -27.37886
 Alpha  occ. eigenvalues --   -4.20773  -2.75882  -2.75144  -2.75144  -0.49866
 Alpha  occ. eigenvalues --   -0.49866  -0.49077  -0.44597  -0.44114  -0.31874
 Alpha virt. eigenvalues --   -0.00427   0.02437   0.02437   0.03214   0.04181
 Alpha virt. eigenvalues --    0.08453   0.08453   0.09572   0.10222   0.10261
 Alpha virt. eigenvalues --    0.10397   0.10397   0.10772   0.17153   0.23712

 Mulliken charges and spin densities:
               1          2
     1  Fe   0.427633   2.997587
     2  H   -0.427633   0.002413
 Sum of Mulliken charges =  -0.00000   3.00000

 Dipole moment (field-independent basis, Debye):
    X=              0.0000    Y=              0.0000    Z=              4.4052  Tot=              4.4052
 Quadrupole moment (field-independent basis, Debye-Ang):
   XX=            -15.9197   YY=            -15.9197   ZZ=            -17.7400
   XY=              0.0000   XZ=              0.0000   YZ=              0.0000

 \#P ROCCSD(T)=(MaxCyc=150, FrzINGC)/Gen SCF=(maxcycle=400) Integral(DK
 748\MP4SDQ=-1272.5508468\CCSD=-1272.5393675\CCSD(T)=-1272.566162\RMSD=
 Normal termination of Gaussian 16 at Wed Mar  7 11:17:11 2018.
