 Gaussian 16, Revision A.03,
 Gaussian 16:  ES64L-G16RevA.03 25-Dec-2016

 ----------------------------------------------------------------------
 #P ROCCSD(T)=(MaxCyc=150, FrzINGC)/Gen SCF=(maxcycle=400) Integral(DKH
 SO, NoXCTest) Pop=Regular MaxDisk=500GB Guess=Read IOp(5/15=2)
 ----------------------------------------------------------------------

 ---
 FeH
 ---
 Symbolic Z-matrix:
 Charge =  0 Multiplicity = 4

                         Standard orientation:
 ---------------------------------------------------------------------
 Center     Atomic      Atomic             Coordinates (Angstroms)
 Number     Number       Type             X           Y           Z
 ---------------------------------------------------------------------
      1         26           0        0.000000    0.000000    0.059259
      2          1           0        0.000000    0.000000   -1.540741
 ---------------------------------------------------------------------

 SCF Done:  E(ROHF) =  -1271.82260693     A.U. after   45 cycles
 E2 =    -0.7882391425D+00 EUMP2 =    -0.12726108460707D+04
 CCSD(T)
 CCSD(T)= -0.12726002017D+04

 Unable to determine electronic state:  partially filled degenerate orbitals.
 Alpha  occ. eigenvalues -- -263.53533 -32.31093 -27.37913 -27.37913 -27.37861
 Alpha  occ. eigenvalues --   -4.20760  -2.75869  -2.75133  -2.75133  -0.49868
 Alpha  occ. eigenvalues --   -0.49868  -0.49080  -0.44604  -0.44119  -0.31876
 Alpha virt. eigenvalues --   -0.00444   0.02202   0.02202   0.02935   0.03912
 Alpha virt. eigenvalues --    0.06231   0.06780   0.06793   0.06861   0.06861
 Alpha virt. eigenvalues --    0.07741   0.07741   0.09868   0.16388   0.17899

 Mulliken charges and spin densities:
               1          2
     1  Fe   0.310770   2.996533
     2  H   -0.310770   0.003467
 Sum of Mulliken charges =  -0.00000   3.00000

 Dipole moment (field-independent basis, Debye):
    X=              0.0000    Y=             -0.0000    Z=              4.3998  Tot=              4.3998
 Quadrupole moment (field-independent basis, Debye-Ang):
   XX=            -15.9065   YY=            -15.9065   ZZ=            -17.7495
   XY=              0.0000   XZ=             -0.0000   YZ=             -0.0000

 \#P ROCCSD(T)=(MaxCyc=150, FrzINGC)/Gen SCF=(maxcycle=400) Integral(DK
 72.6108461\MP4SDQ=-1272.5834876\CCSD=-1272.5717517\CCSD(T)=-1272.60020
 Normal termination of Gaussian 16 at Wed Mar  7 12:19:46 2018.
