 Gaussian 16, Revision A.03,
 Gaussian 16:  ES64L-G16RevA.03 25-Dec-2016

 ----------------------------------------------------------------------
 #P ROCCSD(T)=(MaxCyc=150, FrzINGC)/Gen SCF=(maxcycle=400, vshift=200)
 Integral(DKHSO, NoXCTest) Pop=Regular MaxDisk=500GB Guess=Read IOp(5/1
 5=2)
 ----------------------------------------------------------------------

 ---
 FeH
 ---
 Symbolic Z-matrix:
 Charge =  0 Multiplicity = 4

                         Standard orientation:
 ---------------------------------------------------------------------
 Center     Atomic      Atomic             Coordinates (Angstroms)
 Number     Number       Type             X           Y           Z
 ---------------------------------------------------------------------
      1         26           0        0.000000    0.000000    0.059259
      2          1           0        0.000000    0.000000   -1.540741
 ---------------------------------------------------------------------

 SCF Done:  E(ROHF) =  -1271.82288171     A.U. after  117 cycles
 E2 =    -0.8020831416D+00 EUMP2 =    -0.12726249648482D+04
 CCSD(T)
 CCSD(T)= -0.12726123827D+04

 Unable to determine electronic state:  an orbital has unidentified symmetry.
 Alpha  occ. eigenvalues -- -263.53534 -32.31089 -27.37909 -27.37909 -27.37856
 Alpha  occ. eigenvalues --   -4.20755  -2.75864  -2.75129  -2.75129  -0.49864
 Alpha  occ. eigenvalues --   -0.49864  -0.49076  -0.44606  -0.44120  -0.31877
 Alpha virt. eigenvalues --   -0.00471   0.02135   0.02135   0.02615   0.03378
 Alpha virt. eigenvalues --    0.05778   0.06209   0.06220   0.06345   0.06345
 Alpha virt. eigenvalues --    0.07387   0.07387   0.08632   0.12956   0.16617

 Mulliken charges and spin densities:
               1          2
     1  Fe   0.286567   2.995684
     2  H   -0.286567   0.004316
 Sum of Mulliken charges =  -0.00000   3.00000

 Dipole moment (field-independent basis, Debye):
    X=              0.0000    Y=             -0.0000    Z=              4.3996  Tot=              4.3996
 Quadrupole moment (field-independent basis, Debye-Ang):
   XX=            -15.9040   YY=            -15.9040   ZZ=            -17.7526
   XY=             -0.0000   XZ=              0.0001   YZ=             -0.0000

 \#P ROCCSD(T)=(MaxCyc=150, FrzINGC)/Gen SCF=(maxcycle=400, vshift=200)
 Normal termination of Gaussian 16 at Thu Mar  8 19:28:40 2018.
