 Gaussian 16, Revision A.03,
 Gaussian 16:  ES64L-G16RevA.03 25-Dec-2016

 ----------------------------------------------------------------------
 #P ROCCSD(T)=(maxcyc=150, Window=(7,0), SaveAmplitudes, ReadAmplitudes
 )/Gen 5d 7f SCF=(maxcycles=300) Integral(NoXCTest, DKHSO) MaxDisk=500G
 B Pop=Regular Guess=Read
 ----------------------------------------------------------------------

 ---
 MnO
 ---
 Symbolic Z-matrix:
 Charge =  0 Multiplicity = 6

                         Standard orientation:
 ---------------------------------------------------------------------
 Center     Atomic      Atomic             Coordinates (Angstroms)
 Number     Number       Type             X           Y           Z
 ---------------------------------------------------------------------
      1         25           0        0.000000    0.000000    0.460606
      2          8           0        0.000000    0.000000   -1.439394
 ---------------------------------------------------------------------

 SCF Done:  E(ROHF) =  -1232.21669671     A.U. after   22 cycles
 E2 =    -0.9145405375D+00 EUMP2 =    -0.12331312372521D+04
 CCSD(T)
 CCSD(T)= -0.12331470257D+04

 The electronic state is 6-SG.
 Alpha  occ. eigenvalues -- -242.52005 -29.62004 -24.97618 -24.97618 -24.97242
 Alpha  occ. eigenvalues --  -20.46407  -4.10511  -2.76022  -2.76022  -2.75495
 Alpha  occ. eigenvalues --   -1.09069  -0.65731  -0.65731  -0.65636  -0.65636
 Alpha  occ. eigenvalues --   -0.63068  -0.34813  -0.34813  -0.32273
 Alpha virt. eigenvalues --   -0.05233   0.01113   0.01113   0.01419   0.03345
 Alpha virt. eigenvalues --    0.05545   0.05545   0.05695   0.05695   0.06357
 Alpha virt. eigenvalues --    0.06753   0.06753   0.10811   0.12591   0.17881

 Mulliken charges and spin densities:
               1          2
     1  Mn   1.054309   4.961550
     2  O   -1.054309   0.038450
 Sum of Mulliken charges =  -0.00000   5.00000

 Dipole moment (field-independent basis, Debye):
    X=             -0.0000    Y=              0.0000    Z=              9.2174  Tot=              9.2174
 Quadrupole moment (field-independent basis, Debye-Ang):
   XX=            -19.6655   YY=            -19.6655   ZZ=            -25.5086
   XY=              0.0000   XZ=             -0.0000   YZ=              0.0000

 1\1\GINC-C502-081\SP\ROCCSD(T)-RW\Gen\Mn1O1(6)\AANNABE\14-Mar-2018\0\\
 #P ROCCSD(T)=(maxcyc=150, Window=(7,0), SaveAmplitudes, ReadAmplitudes
 )/Gen 5d 7f SCF=(maxcycles=300) Integral(NoXCTest, DKHSO) MaxDisk=500G
 B Pop=Regular Guess=Read\\MnO\\0,6\Mn,0,0.,0.,0.\O,0,0.,0.,1.9\\Versio
 n=ES64L-G16RevA.03\State=6-SG\HF=-1232.2166967\MP2=-1233.1312373\PUHF=
 -1232.2166967\PMP2-0=-1233.1312373\CCSD=-1233.1064989\CCSD(T)=-1233.14
 70257\RMSD=9.227e-09\PG=C*V [C*(O1Mn1)]\\@

 Normal termination of Gaussian 16 at Wed Mar 14 15:17:04 2018.
