 Gaussian 16, Revision A.03,
 Gaussian 16:  ES64L-G16RevA.03 25-Dec-2016

 ----------------------------------------------------------------------
 #P ROCCSD(T)=(maxcyc=150, Full, SaveAmplitudes, ReadAmplitudes)/Gen 5d
  7f SCF=(maxcycles=300) Integral(NoXCTest) MaxDisk=500GB Pop=Regular P
 seudo=Read Guess=Read
 ----------------------------------------------------------------------

 ---
 CrH
 ---
 Symbolic Z-matrix:
 Charge =  0 Multiplicity = 6

                         Standard orientation:
 ---------------------------------------------------------------------
 Center     Atomic      Atomic             Coordinates (Angstroms)
 Number     Number       Type             X           Y           Z
 ---------------------------------------------------------------------
      1         24           0        0.000000    0.000000    0.040000
      2          1           0        0.000000    0.000000   -0.960000
 ---------------------------------------------------------------------

 SCF Done:  E(ROHF) =  -86.6223511070     A.U. after   45 cycles
 E2 =    -0.6482284709D+00 EUMP2 =    -0.87270579577833D+02
 CCSD(T)
 CCSD(T)= -0.87281407021D+02

 The electronic state is 6-SG.
 Alpha  occ. eigenvalues --   -3.55874  -2.33594  -2.31164  -2.31164  -0.50034
 Alpha  occ. eigenvalues --   -0.42481  -0.42481  -0.39140  -0.39140  -0.24690
 Alpha virt. eigenvalues --    0.01564   0.01774   0.01774   0.02253   0.04751
 Alpha virt. eigenvalues --    0.05509   0.05509   0.05517   0.05517   0.05881
 Alpha virt. eigenvalues --    0.05926   0.05926   0.09300   0.13625   0.16750

 Mulliken charges and spin densities:
               1          2
     1  Cr   0.268287   5.017331
     2  H   -0.268287  -0.017331
 Sum of Mulliken charges =  -0.00000   5.00000

 Dipole moment (field-independent basis, Debye):
    X=              0.0000    Y=              0.0000    Z=              1.9479  Tot=              1.9479
 Quadrupole moment (field-independent basis, Debye-Ang):
   XX=            -16.3748   YY=            -16.3748   ZZ=            -17.4511
   XY=              0.0000   XZ=              0.0000   YZ=              0.0000

 \\#P ROCCSD(T)=(maxcyc=150, Full, SaveAmplitudes, ReadAmplitudes)/Gen
 23511\PMP2-0=-87.2705796\CCSD=-87.2582227\CCSD(T)=-87.281407\RMSD=7.49
 Normal termination of Gaussian 16 at Sun Feb 25 17:34:42 2018.
