 Gaussian 16, Revision A.03,
 Gaussian 16:  ES64L-G16RevA.03 25-Dec-2016

 ----------------------------------------------------------------------
 #P ROCCSD(T)=(maxcyc=150, Full, SaveAmplitudes, ReadAmplitudes)/Gen 5d
  7f SCF=(maxcycles=300) Integral(NoXCTest) MaxDisk=500GB Pop=Regular P
 seudo=Read Guess=Read IOp(5/15=2)
 ----------------------------------------------------------------------

 ---
 ScO
 ---
 Symbolic Z-matrix:
 Charge =  0 Multiplicity = 2

                         Standard orientation:
 ---------------------------------------------------------------------
 Center     Atomic      Atomic             Coordinates (Angstroms)
 Number     Number       Type             X           Y           Z
 ---------------------------------------------------------------------
      1         21           0        0.000000    0.000000    0.524138
      2          8           0        0.000000    0.000000   -1.375862
 ---------------------------------------------------------------------

 SCF Done:  E(ROHF) =  -61.8288657597     A.U. after   19 cycles
 E2 =    -0.6896344800D+00 EUMP2 =    -0.62518500239668D+02
 CCSD(T)
 CCSD(T)= -0.62550341436D+02

 The electronic state is 2-SG.
 Alpha  occ. eigenvalues --   -2.71553  -1.68873  -1.68800  -1.68800  -1.11000
 Alpha  occ. eigenvalues --   -0.40282  -0.36519  -0.36519  -0.27379
 Alpha virt. eigenvalues --   -0.00865  -0.00865   0.00900   0.01961   0.03052
 Alpha virt. eigenvalues --    0.03052   0.03346   0.03346   0.04105   0.04315
 Alpha virt. eigenvalues --    0.04315   0.04899   0.06041   0.06041   0.09976

 Mulliken charges and spin densities:
               1          2
     1  Sc   1.217299   0.977082
     2  O   -1.217299   0.022918
 Sum of Mulliken charges =  -0.00000   1.00000

 Dipole moment (field-independent basis, Debye):
    X=              0.0000    Y=              0.0000    Z=              6.6240  Tot=              6.6240
 Quadrupole moment (field-independent basis, Debye-Ang):
   XX=            -22.0470   YY=            -22.0470   ZZ=            -34.1743
   XY=              0.0000   XZ=              0.0000   YZ=              0.0000

 \\#P ROCCSD(T)=(maxcyc=150, Full, SaveAmplitudes, ReadAmplitudes)/Gen
 85\CCSD=-62.5033973\CCSD(T)=-62.5503414\RMSD=4.233e-09\PG=C*V [C*(O1Sc
 Normal termination of Gaussian 16 at Wed Feb 21 06:29:52 2018.
