 Gaussian 16, Revision A.03,
 Gaussian 16:  ES64L-G16RevA.03 25-Dec-2016

 ----------------------------------------------------------------------
 #P ROCCSD(T)=(MaxCyc=150, Full)/Gen SCF=(maxcycle=400, vshift=200) Int
 egral(DKHSO, NoXCTest) Pop=Regular MaxDisk=500GB Guess=Read
 ----------------------------------------------------------------------

 ---
 CuH
 ---
 Symbolic Z-matrix:
 Charge =  0 Multiplicity = 1

                         Standard orientation:
 ---------------------------------------------------------------------
 Center     Atomic      Atomic             Coordinates (Angstroms)
 Number     Number       Type             X           Y           Z
 ---------------------------------------------------------------------
      1         29           0        0.000000    0.000000    0.043333
      2          1           0        0.000000    0.000000   -1.256667
 ---------------------------------------------------------------------

 SCF Done:  E(ROHF) =  -1653.70033557     A.U. after   10 cycles
 E2 =    -0.1638939162D+01 EUMP2 =    -0.16553392747357D+04
 CCSD(T)
 CCSD(T)= -0.16552280816D+04

 The electronic state is 1-SG.
 Alpha  occ. eigenvalues -- -332.51597 -41.69393 -35.83297 -35.83259 -35.83259
 Alpha  occ. eigenvalues --   -5.18751  -3.39789  -3.38729  -3.38729  -0.53414
 Alpha  occ. eigenvalues --   -0.51249  -0.51249  -0.50432  -0.50432  -0.33892
 Alpha virt. eigenvalues --    0.00382   0.02589   0.02589   0.02823   0.04599
 Alpha virt. eigenvalues --    0.07821   0.08643   0.08643   0.12015   0.12015
 Alpha virt. eigenvalues --    0.12050   0.12572   0.12572   0.15288   0.18716

 Mulliken charges and spin densities:
               1          2
     1  Cu   0.305897   0.000000
     2  H   -0.305897   0.000000
 Sum of Mulliken charges =  -0.00000   0.00000

 Dipole moment (field-independent basis, Debye):
    X=             -0.0000    Y=              0.0000    Z=              3.5574  Tot=              3.5574
 Quadrupole moment (field-independent basis, Debye-Ang):
   XX=            -14.0225   YY=            -14.0225   ZZ=            -15.2261
   XY=             -0.0000   XZ=              0.0000   YZ=              0.0000

 P ROCCSD(T)=(MaxCyc=150, Full)/Gen SCF=(maxcycle=400, vshift=200) Inte
 -0=-1655.3392747\MP4SDQ=-1655.2717718\CCSD=-1655.1852269\CCSD(T)=-1655
 Normal termination of Gaussian 16 at Fri Apr  6 13:54:25 2018.
