 Gaussian 16, Revision A.03,
 Gaussian 16:  ES64L-G16RevA.03 25-Dec-2016

 ----------------------------------------------------------------------
 #P ROCCSD(T)=(maxcyc=150, Full)/Gen 5d 7f SCF=(maxcycles=300) Integral
 (NoXCTest) MaxDisk=500GB Pop=Regular Pseudo=Read IOp(5/15=2) Guess=Rea
 d
 ----------------------------------------------------------------------

 ---
 ScH
 ---
 Symbolic Z-matrix:
 Charge =  0 Multiplicity = 1

                         Standard orientation:
 ---------------------------------------------------------------------
 Center     Atomic      Atomic             Coordinates (Angstroms)
 Number     Number       Type             X           Y           Z
 ---------------------------------------------------------------------
      1         21           0        0.000000    0.000000    0.072727
      2          1           0        0.000000    0.000000   -1.527273
 ---------------------------------------------------------------------

 SCF Done:  E(ROHF) =  -46.5914831466     A.U. after   11 cycles
 E2 =    -0.4238562915D+00 EUMP2 =    -0.47015339438110D+02
 CCSD(T)
 CCSD(T)= -0.47056430410D+02

 The electronic state is 1-SG.
 Alpha  occ. eigenvalues --   -2.67479  -1.64979  -1.64474  -1.64474  -0.42956
 Alpha  occ. eigenvalues --   -0.22564
 Alpha virt. eigenvalues --    0.01205   0.01205   0.01544   0.01910   0.02870
 Alpha virt. eigenvalues --    0.02870   0.02910   0.02910   0.02926   0.04236
 Alpha virt. eigenvalues --    0.04236   0.04396   0.07688   0.07688   0.07897

 Mulliken charges and spin densities:
               1          2
     1  Sc   0.303692   0.000000
     2  H   -0.303692   0.000000
 Sum of Mulliken charges =  -0.00000   0.00000

 Dipole moment (field-independent basis, Debye):
    X=              0.0000    Y=              0.0000    Z=              0.9937  Tot=              0.9937
 Quadrupole moment (field-independent basis, Debye-Ang):
   XX=            -23.2661   YY=            -23.2661   ZZ=            -25.2727
   XY=              0.0000   XZ=              0.0000   YZ=              0.0000

 P ROCCSD(T)=(maxcyc=150, Full)/Gen 5d 7f SCF=(maxcycles=300) Integral(
 PMP2-0=-47.0153394\MP4SDQ=-47.0378391\CCSD=-47.0375186\CCSD(T)=-47.056
 Normal termination of Gaussian 16 at Wed Feb 14 01:43:45 2018.
