 Gaussian 16, Revision A.03,
 Gaussian 16:  ES64L-G16RevA.03 25-Dec-2016

 ----------------------------------------------------------------------
 #P ROCCSD(T)=(maxcyc=150, Full, SaveAmplitudes, ReadAmplitudes)/Gen 5d
  7f SCF=(maxcycles=300) Integral(NoXCTest) MaxDisk=500GB Pop=Regular P
 seudo=Read Guess=Read
 ----------------------------------------------------------------------

 ---
 TiO
 ---
 Symbolic Z-matrix:
 Charge =  0 Multiplicity = 3

                         Standard orientation:
 ---------------------------------------------------------------------
 Center     Atomic      Atomic             Coordinates (Angstroms)
 Number     Number       Type             X           Y           Z
 ---------------------------------------------------------------------
      1         22           0        0.000000    0.000000    0.480000
      2          8           0        0.000000    0.000000   -1.320000
 ---------------------------------------------------------------------

 SCF Done:  E(ROHF) =  -73.2815204541     A.U. after   20 cycles
 E2 =    -0.7811926563D+00 EUMP2 =    -0.74062713110428D+02
 CCSD(T)
 CCSD(T)= -0.74094739905D+02

 Unable to determine electronic state:  an orbital has unidentified symmetry.
 Alpha  occ. eigenvalues --   -3.05147  -1.96167  -1.96167  -1.92101  -1.13993
 Alpha  occ. eigenvalues --   -0.50406  -0.43330  -0.39583  -0.39583  -0.28663
 Alpha virt. eigenvalues --   -0.00481  -0.00481   0.00675   0.02097   0.03110
 Alpha virt. eigenvalues --    0.03110   0.03585   0.03655   0.03706   0.04316
 Alpha virt. eigenvalues --    0.04316   0.04660   0.07345   0.09977   0.10805

 Mulliken charges and spin densities:
               1          2
     1  Ti   1.034252   1.974898
     2  O   -1.034252   0.025102
 Sum of Mulliken charges =  -0.00000   2.00000

 Dipole moment (field-independent basis, Debye):
    X=              0.0000    Y=              0.0000    Z=              6.0655  Tot=              6.0655
 Quadrupole moment (field-independent basis, Debye-Ang):
   XX=            -21.6500   YY=            -21.6500   ZZ=            -30.2910
   XY=              0.0000   XZ=              0.0000   YZ=              0.0000

 \\#P ROCCSD(T)=(maxcyc=150, Full, SaveAmplitudes, ReadAmplitudes)/Gen
 -0=-74.0627131\CCSD=-74.0406967\CCSD(T)=-74.0947399\RMSD=5.822e-09\PG=
 Normal termination of Gaussian 16 at Fri Mar  9 16:39:57 2018.
