 Gaussian 16, Revision A.03,
 Gaussian 16:  ES64L-G16RevA.03 25-Dec-2016

 ----------------------------------------------------------------------
 #P ROCCSD(T)=(maxcyc=150, Full)/Gen 5d 7f SCF=(maxcycles=300) Integral
 (NoXCTest) MaxDisk=500GB Pop=Regular Pseudo=Read IOp(5/15=2) Guess=Rea
 d
 ----------------------------------------------------------------------

 ---
 ScH
 ---
 Symbolic Z-matrix:
 Charge =  0 Multiplicity = 1

                         Standard orientation:
 ---------------------------------------------------------------------
 Center     Atomic      Atomic             Coordinates (Angstroms)
 Number     Number       Type             X           Y           Z
 ---------------------------------------------------------------------
      1         21           0        0.000000    0.000000    0.090909
      2          1           0        0.000000    0.000000   -1.909091
 ---------------------------------------------------------------------

 SCF Done:  E(ROHF) =  -46.5900799597     A.U. after   12 cycles
 E2 =    -0.4037954993D+00 EUMP2 =    -0.46993875459050D+02
 CCSD(T)
 CCSD(T)= -0.47040926635D+02

 The electronic state is 1-SG.
 Alpha  occ. eigenvalues --   -2.71523  -1.68290  -1.68290  -1.68104  -0.37989
 Alpha  occ. eigenvalues --   -0.23934
 Alpha virt. eigenvalues --    0.01030   0.01030   0.01328   0.02273   0.03582
 Alpha virt. eigenvalues --    0.03780   0.03780   0.03937   0.03937   0.04373
 Alpha virt. eigenvalues --    0.04373   0.04387   0.07479   0.07479   0.08505

 Mulliken charges and spin densities:
               1          2
     1  Sc   0.316890   0.000000
     2  H   -0.316890   0.000000
 Sum of Mulliken charges =  -0.00000   0.00000

 Dipole moment (field-independent basis, Debye):
    X=              0.0000    Y=              0.0000    Z=              2.2019  Tot=              2.2019
 Quadrupole moment (field-independent basis, Debye-Ang):
   XX=            -22.9729   YY=            -22.9729   ZZ=            -28.3753
   XY=              0.0000   XZ=              0.0000   YZ=              0.0000

 P ROCCSD(T)=(maxcyc=150, Full)/Gen 5d 7f SCF=(maxcycles=300) Integral(
 0=-46.9938755\MP4SDQ=-47.0219393\CCSD=-47.0220757\CCSD(T)=-47.0409266\
 Normal termination of Gaussian 16 at Wed Feb 14 08:09:50 2018.
