 Gaussian 16, Revision A.03,
 Gaussian 16:  ES64L-G16RevA.03 25-Dec-2016

 ----------------------------------------------------------------------
 #P ROCCSD(T)=(maxcyc=150, Full, SaveAmplitudes, ReadAmplitudes)/Gen 5d
  7f SCF=(maxcycles=300) Integral(NoXCTest) MaxDisk=500GB Pop=Regular P
 seudo=Read Guess=Read IOp(5/15=2)
 ----------------------------------------------------------------------

 ---
 MnO
 ---
 Symbolic Z-matrix:
 Charge =  0 Multiplicity = 6

                         Standard orientation:
 ---------------------------------------------------------------------
 Center     Atomic      Atomic             Coordinates (Angstroms)
 Number     Number       Type             X           Y           Z
 ---------------------------------------------------------------------
      1         25           0        0.000000    0.000000    0.290909
      2          8           0        0.000000    0.000000   -0.909091
 ---------------------------------------------------------------------

 SCF Done:  E(ROHF) =  -118.865900192     A.U. after   28 cycles
 E2 =    -0.9347217099D+00 EUMP2 =    -0.11980062190151D+03
 CCSD(T)
 CCSD(T)= -0.11980195141D+03

 The electronic state is 6-SG.
 Alpha  occ. eigenvalues --   -4.21315  -2.79405  -2.75270  -2.75270  -1.29881
 Alpha  occ. eigenvalues --   -0.78627  -0.78627  -0.66043  -0.59778  -0.59778
 Alpha  occ. eigenvalues --   -0.38337  -0.38337  -0.28812
 Alpha virt. eigenvalues --    0.02322   0.02649   0.02649   0.02965   0.07267
 Alpha virt. eigenvalues --    0.08156   0.08156   0.08824   0.08824   0.09466
 Alpha virt. eigenvalues --    0.09466   0.10887   0.11724   0.17396   0.25350

 Mulliken charges and spin densities:
               1          2
     1  Mn   0.645634   4.715345
     2  O   -0.645634   0.284655
 Sum of Mulliken charges =  -0.00000   5.00000

 Dipole moment (field-independent basis, Debye):
    X=              0.0000    Y=              0.0000    Z=              1.2813  Tot=              1.2813
 Quadrupole moment (field-independent basis, Debye-Ang):
   XX=            -20.2205   YY=            -20.2205   ZZ=            -22.3898
   XY=              0.0000   XZ=              0.0000   YZ=              0.0000

 \\#P ROCCSD(T)=(maxcyc=150, Full, SaveAmplitudes, ReadAmplitudes)/Gen
 .776449\CCSD=-119.764381\CCSD(T)=-119.8019514\RMSD=6.535e-09\PG=C*V [C
 Normal termination of Gaussian 16 at Tue Mar 13 14:23:22 2018.
