 Gaussian 16, Revision A.03,
 Gaussian 16:  ES64L-G16RevA.03 25-Dec-2016

 ----------------------------------------------------------------------
 #P ROCCSD(T)=(maxcyc=150, Full, SaveAmplitudes, ReadAmplitudes)/Gen 5d
  7f SCF=(maxcycles=300, VShift=400) Integral(NoXCTest) MaxDisk=500GB P
 op=Full Pseudo=Read Guess=Read IOp(5/15=2)
 ----------------------------------------------------------------------

 ---
 MnH
 ---
 Symbolic Z-matrix:
 Charge =  0 Multiplicity = 7

                         Standard orientation:
 ---------------------------------------------------------------------
 Center     Atomic      Atomic             Coordinates (Angstroms)
 Number     Number       Type             X           Y           Z
 ---------------------------------------------------------------------
      1         25           0        0.000000    0.000000    0.065385
      2          1           0        0.000000    0.000000   -1.634615
 ---------------------------------------------------------------------

 SCF Done:  E(ROHF) =  -103.793846054     A.U. after   33 cycles
 E2 =    -0.5738189311D+00 EUMP2 =    -0.10436766498479D+03
 CCSD(T)
 CCSD(T)= -0.10438995304D+03

 The electronic state is 7-SG.
 Alpha  occ. eigenvalues --   -4.14666  -2.76906  -2.76906  -2.76723  -0.64597
 Alpha  occ. eigenvalues --   -0.64597  -0.64388  -0.63909  -0.63909  -0.40861
 Alpha  occ. eigenvalues --   -0.26090
 Alpha virt. eigenvalues --    0.01253   0.01253   0.02326   0.03132   0.05733
 Alpha virt. eigenvalues --    0.05733   0.08298   0.08470   0.08470   0.08943
 Alpha virt. eigenvalues --    0.08943   0.09777   0.13904   0.19716   0.22691

 Mulliken charges and spin densities:
               1          2
     1  Mn   0.432788   5.958441
     2  H   -0.432788   0.041559
 Sum of Mulliken charges =  -0.00000   6.00000

 Dipole moment (field-independent basis, Debye):
    X=              0.0000    Y=              0.0000    Z=              1.3039  Tot=              1.3039
 Quadrupole moment (field-independent basis, Debye-Ang):
   XX=            -16.1949   YY=            -16.1949   ZZ=            -26.3845
   XY=              0.0000   XZ=              0.0000   YZ=              0.0000

 \\#P ROCCSD(T)=(maxcyc=150, Full, SaveAmplitudes, ReadAmplitudes)/Gen
 DQ=-104.3735192\CCSD=-104.3742534\CCSD(T)=-104.389953\RMSD=9.434e-09\P
 Normal termination of Gaussian 16 at Thu Apr 19 08:11:13 2018.
