 Gaussian 16, Revision A.03,
 Gaussian 16:  ES64L-G16RevA.03 25-Dec-2016

 ----------------------------------------------------------------------
 #P ROCCSD(T)=(maxcyc=150, Full)/Gen 5d 7f SCF=(maxcycles=300) Integral
 (NoXCTest) MaxDisk=500GB Pop=Regular Pseudo=Read IOp(5/15=2) Guess=Rea
 d
 ----------------------------------------------------------------------

 ---
 ScH
 ---
 Symbolic Z-matrix:
 Charge =  0 Multiplicity = 1

                         Standard orientation:
 ---------------------------------------------------------------------
 Center     Atomic      Atomic             Coordinates (Angstroms)
 Number     Number       Type             X           Y           Z
 ---------------------------------------------------------------------
      1         21           0        0.000000    0.000000    0.081818
      2          1           0        0.000000    0.000000   -1.718182
 ---------------------------------------------------------------------

 SCF Done:  E(ROHF) =  -46.5981136507     A.U. after   11 cycles
 E2 =    -0.4203865710D+00 EUMP2 =    -0.47018500221700D+02
 CCSD(T)
 CCSD(T)= -0.47061729917D+02

 The electronic state is 1-SG.
 Alpha  occ. eigenvalues --   -2.69654  -1.66547  -1.66547  -1.66530  -0.40446
 Alpha  occ. eigenvalues --   -0.23240
 Alpha virt. eigenvalues --    0.01112   0.01112   0.01445   0.01963   0.02848
 Alpha virt. eigenvalues --    0.02848   0.02927   0.02927   0.02955   0.04086
 Alpha virt. eigenvalues --    0.04086   0.04182   0.07229   0.07229   0.07782

 Mulliken charges and spin densities:
               1          2
     1  Sc   0.285591   0.000000
     2  H   -0.285591   0.000000
 Sum of Mulliken charges =  -0.00000   0.00000

 Dipole moment (field-independent basis, Debye):
    X=              0.0000    Y=              0.0000    Z=              1.5270  Tot=              1.5270
 Quadrupole moment (field-independent basis, Debye-Ang):
   XX=            -23.0802   YY=            -23.0802   ZZ=            -26.7704
   XY=              0.0000   XZ=              0.0000   YZ=              0.0000

 P ROCCSD(T)=(maxcyc=150, Full)/Gen 5d 7f SCF=(maxcycles=300) Integral(
 PMP2-0=-47.0185002\MP4SDQ=-47.0424543\CCSD=-47.0424284\CCSD(T)=-47.061
 Normal termination of Gaussian 16 at Wed Feb 14 05:07:17 2018.
