 Gaussian 16, Revision A.03,
 Gaussian 16:  ES64L-G16RevA.03 25-Dec-2016

 ----------------------------------------------------------------------
 #P ROCCSD(T)=(MaxCyc=150, Full)/Gen SCF=(maxcycle=400) Pseudo=Read Int
 egral(NoXCTest) Pop=Regular MaxDisk=500GB Guess=Read IOp(5/15=2)
 ----------------------------------------------------------------------

 ---
 ZnO
 ---
 Symbolic Z-matrix:
 Charge =  0 Multiplicity = 1

                         Standard orientation:
 ---------------------------------------------------------------------
 Center     Atomic      Atomic             Coordinates (Angstroms)
 Number     Number       Type             X           Y           Z
 ---------------------------------------------------------------------
      1         30           0        0.000000    0.000000    0.378947
      2          8           0        0.000000    0.000000   -1.421053
 ---------------------------------------------------------------------

 SCF Done:  E(ROHF) =  -241.651874356     A.U. after    1 cycles
 E2 =    -0.1323478582D+01 EUMP2 =    -0.24297535293796D+03
 CCSD(T)
 CCSD(T)= -0.24292247631D+03

 The electronic state is 1-SG.
 Alpha  occ. eigenvalues --   -5.92248  -3.99384  -3.99384  -3.99383  -1.16702
 Alpha  occ. eigenvalues --   -0.82439  -0.82439  -0.82136  -0.82136  -0.80792
 Alpha  occ. eigenvalues --   -0.41462  -0.41462  -0.36346
 Alpha virt. eigenvalues --   -0.04514   0.02534   0.02534   0.02694   0.04597
 Alpha virt. eigenvalues --    0.08619   0.08619   0.13216   0.17481   0.21765
 Alpha virt. eigenvalues --    0.23237   0.23237   0.24671   0.24671   0.30056

 Mulliken charges and spin densities:
               1          2
     1  Zn   0.903153   0.000000
     2  O   -0.903153   0.000000
 Sum of Mulliken charges =  -0.00000   0.00000

 Dipole moment (field-independent basis, Debye):
    X=              0.0000    Y=              0.0000    Z=              6.6259  Tot=              6.6259
 Quadrupole moment (field-independent basis, Debye-Ang):
   XX=            -18.2794   YY=            -18.2794   ZZ=            -21.8244
   XY=              0.0000   XZ=              0.0000   YZ=              0.0000

 P ROCCSD(T)=(MaxCyc=150, Full)/Gen SCF=(maxcycle=400) Pseudo=Read Inte
 2-0=-242.9753529\MP4SDQ=-242.9135275\CCSD=-242.8744592\CCSD(T)=-242.92
 Normal termination of Gaussian 16 at Wed Mar 28 00:17:54 2018.
