 Gaussian 16, Revision A.03,
 Gaussian 16:  ES64L-G16RevA.03 25-Dec-2016

 ----------------------------------------------------------------------
 #P ROCCSD(T)=(MaxCyc=150, Full)/Gen SCF=(maxcycle=400) Pseudo=Read Int
 egral(NoXCTest) Pop=Regular MaxDisk=500GB Guess=Read IOp(5/15=2)
 ----------------------------------------------------------------------

 ---
 ZnO
 ---
 Symbolic Z-matrix:
 Charge =  0 Multiplicity = 1

                         Standard orientation:
 ---------------------------------------------------------------------
 Center     Atomic      Atomic             Coordinates (Angstroms)
 Number     Number       Type             X           Y           Z
 ---------------------------------------------------------------------
      1         30           0        0.000000    0.000000    0.378947
      2          8           0        0.000000    0.000000   -1.421053
 ---------------------------------------------------------------------

 SCF Done:  E(ROHF) =  -241.655352827     A.U. after   11 cycles
 E2 =    -0.1390837381D+01 EUMP2 =    -0.24304619020854D+03
 CCSD(T)
 CCSD(T)= -0.24299087199D+03

 The electronic state is 1-SG.
 Alpha  occ. eigenvalues --   -5.92230  -3.99361  -3.99361  -3.99354  -1.16651
 Alpha  occ. eigenvalues --   -0.82422  -0.82422  -0.82123  -0.82123  -0.80770
 Alpha  occ. eigenvalues --   -0.41482  -0.41482  -0.36325
 Alpha virt. eigenvalues --   -0.04499   0.02317   0.02317   0.02463   0.04133
 Alpha virt. eigenvalues --    0.07529   0.07529   0.11808   0.16559   0.17200
 Alpha virt. eigenvalues --    0.17785   0.17785   0.20147   0.20147   0.23214

 Mulliken charges and spin densities:
               1          2
     1  Zn   0.846964   0.000000
     2  O   -0.846964   0.000000
 Sum of Mulliken charges =  -0.00000   0.00000

 Dipole moment (field-independent basis, Debye):
    X=              0.0000    Y=              0.0000    Z=              6.6116  Tot=              6.6116
 Quadrupole moment (field-independent basis, Debye-Ang):
   XX=            -18.2659   YY=            -18.2659   ZZ=            -21.8253
   XY=              0.0000   XZ=              0.0000   YZ=              0.0000

 P ROCCSD(T)=(MaxCyc=150, Full)/Gen SCF=(maxcycle=400) Pseudo=Read Inte
 2-0=-243.0461902\MP4SDQ=-242.9786789\CCSD=-242.940296\CCSD(T)=-242.990
 Normal termination of Gaussian 16 at Wed Mar 28 02:31:58 2018.
