 Gaussian 16, Revision A.03,
 Gaussian 16:  ES64L-G16RevA.03 25-Dec-2016

 ----------------------------------------------------------------------
 #P ROCCSD(T)=(maxcyc=150, Full, SaveAmplitudes, ReadAmplitudes)/Gen 5d
  7f SCF=(maxcycles=300) Integral(NoXCTest) MaxDisk=500GB Pop=Regular P
 seudo=Read Guess=Read
 ----------------------------------------------------------------------

 ---
 TiO
 ---
 Symbolic Z-matrix:
 Charge =  0 Multiplicity = 3

                         Standard orientation:
 ---------------------------------------------------------------------
 Center     Atomic      Atomic             Coordinates (Angstroms)
 Number     Number       Type             X           Y           Z
 ---------------------------------------------------------------------
      1         22           0        0.000000    0.000000    0.373333
      2          8           0        0.000000    0.000000   -1.026667
 ---------------------------------------------------------------------

 SCF Done:  E(ROHF) =  -73.5041594800     A.U. after   19 cycles
 E2 =    -0.7782509796D+00 EUMP2 =    -0.74282410459583D+02
 CCSD(T)
 CCSD(T)= -0.74304201245D+02

 Unable to determine electronic state:  an orbital has unidentified symmetry.
 Alpha  occ. eigenvalues --   -2.98586  -1.91420  -1.84635  -1.84635  -1.15350
 Alpha  occ. eigenvalues --   -0.53337  -0.53337  -0.50268  -0.39213  -0.23444
 Alpha virt. eigenvalues --    0.00978   0.00978   0.01992   0.02313   0.03779
 Alpha virt. eigenvalues --    0.03833   0.03867   0.03867   0.03959   0.04406
 Alpha virt. eigenvalues --    0.04406   0.06766   0.10329   0.10411   0.11407

 Mulliken charges and spin densities:
               1          2
     1  Ti   0.941036   1.969344
     2  O   -0.941036   0.030656
 Sum of Mulliken charges =  -0.00000   2.00000

 Dipole moment (field-independent basis, Debye):
    X=              0.0000    Y=              0.0000    Z=              1.9998  Tot=              1.9998
 Quadrupole moment (field-independent basis, Debye-Ang):
   XX=            -21.5846   YY=            -21.5846   ZZ=            -27.4867
   XY=              0.0000   XZ=              0.0000   YZ=              0.0000

 \\#P ROCCSD(T)=(maxcyc=150, Full, SaveAmplitudes, ReadAmplitudes)/Gen
 -0=-74.2824105\CCSD=-74.2641225\CCSD(T)=-74.3042012\RMSD=3.052e-09\PG=
 Normal termination of Gaussian 16 at Mon Mar 12 15:35:32 2018.
