 Gaussian 16, Revision A.03,
 Gaussian 16:  ES64L-G16RevA.03 25-Dec-2016

 ----------------------------------------------------------------------
 #P ROCCSD(T)=(MaxCyc=150, Full)/Gen SCF=(maxcycle=400) Pseudo=Read Int
 egral(NoXCTest) Pop=Regular MaxDisk=500GB
 ----------------------------------------------------------------------

 ---
 FeO
 ---
 Symbolic Z-matrix:
 Charge =  0 Multiplicity = 5

                         Standard orientation:
 ---------------------------------------------------------------------
 Center     Atomic      Atomic             Coordinates (Angstroms)
 Number     Number       Type             X           Y           Z
 ---------------------------------------------------------------------
      1         26           0        0.000000    0.000000    0.423529
      2          8           0        0.000000    0.000000   -1.376471
 ---------------------------------------------------------------------

 SCF Done:  E(ROHF) =  -138.659385470     A.U. after   28 cycles
 E2 =    -0.1018353364D+01 EUMP2 =    -0.13967773883374D+03
 CCSD(T)
 CCSD(T)= -0.13970243683D+03

 Unable to determine electronic state:  partially filled degenerate orbitals.
 Alpha  occ. eigenvalues --   -4.61035  -3.07982  -3.00822  -3.00822  -1.10402
 Alpha  occ. eigenvalues --   -0.71184  -0.71184  -0.69552  -0.68039  -0.63071
 Alpha  occ. eigenvalues --   -0.34475  -0.34475  -0.34299
 Alpha virt. eigenvalues --   -0.05861   0.01274   0.01274   0.01396   0.03544
 Alpha virt. eigenvalues --    0.05907   0.05907   0.06355   0.06365   0.06680
 Alpha virt. eigenvalues --    0.07552   0.07552   0.11376   0.13390   0.19038

 Mulliken charges and spin densities:
               1          2
     1  Fe   1.087274   3.931209
     2  O   -1.087274   0.068791
 Sum of Mulliken charges =  -0.00000   4.00000

 Dipole moment (field-independent basis, Debye):
    X=              0.0000    Y=              0.0000    Z=              9.4086  Tot=              9.4086
 Quadrupole moment (field-independent basis, Debye-Ang):
   XX=            -18.8454   YY=            -18.8454   ZZ=            -23.9466
   XY=              0.0000   XZ=              0.0000   YZ=              0.0000

 \\#P ROCCSD(T)=(MaxCyc=150, Full)/Gen SCF=(maxcycle=400) Pseudo=Read I
 443\CCSD=-139.6529369\CCSD(T)=-139.7024368\RMSD=9.672e-09\PG=C*V [C*(O
 Normal termination of Gaussian 16 at Sun Mar 25 02:50:58 2018.
