 Gaussian 16, Revision A.03,
 Gaussian 16:  ES64L-G16RevA.03 25-Dec-2016

 ----------------------------------------------------------------------
 #P ROCCSD(T)=(MaxCyc=150, Full)/Gen SCF=(maxcycle=400) Pseudo=Read Int
 egral(NoXCTest) Pop=Regular MaxDisk=500GB
 ----------------------------------------------------------------------

 ---
 FeO
 ---
 Symbolic Z-matrix:
 Charge =  0 Multiplicity = 5

                         Standard orientation:
 ---------------------------------------------------------------------
 Center     Atomic      Atomic             Coordinates (Angstroms)
 Number     Number       Type             X           Y           Z
 ---------------------------------------------------------------------
      1         26           0        0.000000    0.000000    0.423529
      2          8           0        0.000000    0.000000   -1.376471
 ---------------------------------------------------------------------

 SCF Done:  E(ROHF) =  -138.662857038     A.U. after   28 cycles
 E2 =    -0.9717432693D+00 EUMP2 =    -0.13963460030748D+03
 CCSD(T)
 CCSD(T)= -0.13966167251D+03

 Unable to determine electronic state:  partially filled degenerate orbitals.
 Alpha  occ. eigenvalues --   -4.61206  -3.07963  -3.00801  -3.00801  -1.10426
 Alpha  occ. eigenvalues --   -0.71186  -0.71186  -0.69556  -0.68042  -0.63073
 Alpha  occ. eigenvalues --   -0.34478  -0.34478  -0.34312
 Alpha virt. eigenvalues --   -0.05865   0.01533   0.01533   0.01642   0.04007
 Alpha virt. eigenvalues --    0.06744   0.06744   0.08748   0.09398   0.09429
 Alpha virt. eigenvalues --    0.10471   0.10471   0.13485   0.14777   0.24097

 Mulliken charges and spin densities:
               1          2
     1  Fe   1.103914   3.922606
     2  O   -1.103914   0.077394
 Sum of Mulliken charges =  -0.00000   4.00000

 Dipole moment (field-independent basis, Debye):
    X=              0.0000    Y=              0.0000    Z=              9.4153  Tot=              9.4153
 Quadrupole moment (field-independent basis, Debye-Ang):
   XX=            -18.8452   YY=            -18.8452   ZZ=            -23.9676
   XY=              0.0000   XZ=              0.0000   YZ=              0.0000

 \\#P ROCCSD(T)=(MaxCyc=150, Full)/Gen SCF=(maxcycle=400) Pseudo=Read I
 303\CCSD=-139.6144587\CCSD(T)=-139.6616725\RMSD=9.735e-09\PG=C*V [C*(O
 Normal termination of Gaussian 16 at Sun Mar 25 00:37:52 2018.
