 Gaussian 16, Revision A.03,
 Gaussian 16:  ES64L-G16RevA.03 25-Dec-2016

 ----------------------------------------------------------------------
 #P ROCCSD(T)=(maxcyc=150, Full, SaveAmplitudes, ReadAmplitudes)/Gen 5d
  7f SCF=(maxcycles=300) Integral(NoXCTest) MaxDisk=500GB Pop=Regular P
 seudo=Read Guess=Read IOp(5/15=2)
 ----------------------------------------------------------------------

 ---
 ScO
 ---
 Symbolic Z-matrix:
 Charge =  0 Multiplicity = 2

                         Standard orientation:
 ---------------------------------------------------------------------
 Center     Atomic      Atomic             Coordinates (Angstroms)
 Number     Number       Type             X           Y           Z
 ---------------------------------------------------------------------
      1         21           0        0.000000    0.000000    0.551724
      2          8           0        0.000000    0.000000   -1.448276
 ---------------------------------------------------------------------

 SCF Done:  E(ROHF) =  -61.8863271788     A.U. after   17 cycles
 E2 =    -0.6985207012D+00 EUMP2 =    -0.62584847880001D+02
 CCSD(T)
 CCSD(T)= -0.62618790683D+02

 The electronic state is 2-SG.
 Alpha  occ. eigenvalues --   -2.73763  -1.70507  -1.70507  -1.69999  -1.09838
 Alpha  occ. eigenvalues --   -0.38964  -0.34746  -0.34746  -0.28361
 Alpha virt. eigenvalues --   -0.01341  -0.01341   0.00549   0.01736   0.02815
 Alpha virt. eigenvalues --    0.02815   0.03109   0.03109   0.03697   0.04380
 Alpha virt. eigenvalues --    0.04380   0.04989   0.05111   0.05111   0.09673

 Mulliken charges and spin densities:
               1          2
     1  Sc   1.185952   0.977758
     2  O   -1.185952   0.022242
 Sum of Mulliken charges =  -0.00000   1.00000

 Dipole moment (field-independent basis, Debye):
    X=              0.0000    Y=              0.0000    Z=              7.4528  Tot=              7.4528
 Quadrupole moment (field-independent basis, Debye-Ang):
   XX=            -22.0861   YY=            -22.0861   ZZ=            -34.8771
   XY=              0.0000   XZ=              0.0000   YZ=              0.0000

 \\#P ROCCSD(T)=(maxcyc=150, Full, SaveAmplitudes, ReadAmplitudes)/Gen
 4\CCSD=-62.5670187\CCSD(T)=-62.6187907\RMSD=7.239e-09\PG=C*V [C*(O1Sc1
 Normal termination of Gaussian 16 at Wed Mar 14 08:58:05 2018.
