 Gaussian 16, Revision A.03,
 Gaussian 16:  ES64L-G16RevA.03 25-Dec-2016

 ----------------------------------------------------------------------
 #P ROCCSD(T)=(maxcyc=150, Full)/Gen 5d 7f SCF=(maxcycles=300, NoVarAcc
 , VShift=200) MaxDisk=100GB Pop=Regular Pseudo=Read Guess=Read
 ----------------------------------------------------------------------

 --
 Sc
 --
 Symbolic Z-matrix:
 Charge =  0 Multiplicity = 2

                         Standard orientation:
 ---------------------------------------------------------------------
 Center     Atomic      Atomic             Coordinates (Angstroms)
 Number     Number       Type             X           Y           Z
 ---------------------------------------------------------------------
      1         21           0        0.000000    0.000000    0.000000
 ---------------------------------------------------------------------

 SCF Done:  E(ROHF) =  -46.1565207554     A.U. after   20 cycles
 E2 =    -0.3864958846D+00 EUMP2 =    -0.46543016639970D+02
 CCSD(T)
 CCSD(T)= -0.46578500759D+02

 Unable to determine electronic state:  an orbital has unidentified symmetry.
 Alpha  occ. eigenvalues --   -2.63374  -1.62429  -1.62429  -1.58550  -0.34880
 Alpha  occ. eigenvalues --   -0.21553
 Alpha virt. eigenvalues --    0.01190   0.01281   0.01281   0.02124   0.02886
 Alpha virt. eigenvalues --    0.02890   0.02890   0.02898   0.02918   0.04324
 Alpha virt. eigenvalues --    0.04446   0.04446   0.08096   0.08214   0.08214

 Mulliken charges and spin densities:
               1          2
     1  Sc   0.000000   1.000000
 Sum of Mulliken charges =   0.00000   1.00000

 Dipole moment (field-independent basis, Debye):
    X=              0.0000    Y=              0.0000    Z=              0.0000  Tot=              0.0000
 Quadrupole moment (field-independent basis, Debye-Ang):
   XX=            -23.2859   YY=            -23.2859   ZZ=            -22.9953
   XY=              0.0000   XZ=              0.0000   YZ=             -0.0000

 1\1\GINC-C455-003\SP\ROCCSD(T)-Full\Gen\Sc1(2)\AANNABE\07-Mar-2018\0\\
 #P ROCCSD(T)=(maxcyc=150, Full)/Gen 5d 7f SCF=(maxcycles=300, NoVarAcc
 , VShift=200) MaxDisk=100GB Pop=Regular Pseudo=Read Guess=Read\\Sc\\0,
 2\Sc,0,0.,0.,0.\\Version=ES64L-G16RevA.03\HF=-46.1565208\MP2=-46.54301
 66\MP3=-46.563172\PUHF=-46.1565208\PMP2-0=-46.5430166\MP4SDQ=-46.56266
 3\CCSD=-46.5628923\CCSD(T)=-46.5785008\RMSD=8.234e-09\PG=OH [O(Sc1)]\\
 @

 Normal termination of Gaussian 16 at Wed Mar  7 12:39:03 2018.
