 Gaussian 16, Revision A.03,
 Gaussian 16:  ES64L-G16RevA.03 25-Dec-2016

 ----------------------------------------------------------------------
 #P ROCCSD(T)=(maxcyc=150, Full)/Gen 5d 7f SCF=(maxcycles=300) Integral
 (NoXCTest) MaxDisk=500GB Pop=Regular Pseudo=Read IOp(5/15=2) Guess=Rea
 d
 ----------------------------------------------------------------------

 ---
 ScH
 ---
 Symbolic Z-matrix:
 Charge =  0 Multiplicity = 1

                         Standard orientation:
 ---------------------------------------------------------------------
 Center     Atomic      Atomic             Coordinates (Angstroms)
 Number     Number       Type             X           Y           Z
 ---------------------------------------------------------------------
      1         21           0        0.000000    0.000000    0.100000
      2          1           0        0.000000    0.000000   -2.100000
 ---------------------------------------------------------------------

 SCF Done:  E(ROHF) =  -46.7692822730     A.U. after   12 cycles
 E2 =    -0.4072538732D+00 EUMP2 =    -0.47176536146225D+02
 CCSD(T)
 CCSD(T)= -0.47226365935D+02

 The electronic state is 1-SG.
 Alpha  occ. eigenvalues --   -2.78919  -1.69249  -1.69249  -1.69031  -0.35863
 Alpha  occ. eigenvalues --   -0.24617
 Alpha virt. eigenvalues --    0.00831   0.00831   0.01091   0.02300   0.03588
 Alpha virt. eigenvalues --    0.03703   0.03703   0.03937   0.03937   0.04064
 Alpha virt. eigenvalues --    0.04144   0.04144   0.06661   0.06661   0.07841

 Mulliken charges and spin densities:
               1          2
     1  Sc   0.304722   0.000000
     2  H   -0.304722   0.000000
 Sum of Mulliken charges =   0.00000   0.00000

 Dipole moment (field-independent basis, Debye):
    X=              0.0000    Y=              0.0000    Z=              2.8757  Tot=              2.8757
 Quadrupole moment (field-independent basis, Debye-Ang):
   XX=            -22.8935   YY=            -22.8935   ZZ=            -30.2949
   XY=              0.0000   XZ=              0.0000   YZ=              0.0000

 P ROCCSD(T)=(maxcyc=150, Full)/Gen 5d 7f SCF=(maxcycles=300) Integral(
 PMP2-0=-47.1765361\MP4SDQ=-47.2060508\CCSD=-47.2067059\CCSD(T)=-47.226
 Normal termination of Gaussian 16 at Wed Feb 14 11:39:37 2018.
