 Gaussian 16, Revision A.03,
 Gaussian 16:  ES64L-G16RevA.03 25-Dec-2016

 ----------------------------------------------------------------------
 #P ROCCSD(T)=(maxcyc=100, Full)/Gen SCF=(maxcycle=400, symm) Pseudo=Re
 ad Integral(NoXCTest) Pop=Regular MaxDisk=500GB Guess=Permute IOp(5/15
 =2)
 ----------------------------------------------------------------------

 ---
 FeH
 ---
 Symbolic Z-matrix:
 Charge =  0 Multiplicity = 4

                         Standard orientation:
 ---------------------------------------------------------------------
 Center     Atomic      Atomic             Coordinates (Angstroms)
 Number     Number       Type             X           Y           Z
 ---------------------------------------------------------------------
      1         26           0        0.000000    0.000000    0.051852
      2          1           0        0.000000    0.000000   -1.348148
 ---------------------------------------------------------------------

 SCF Done:  E(ROHF) =  -123.577855849     A.U. after   87 cycles
 E2 =    -0.8235783046D+00 EUMP2 =    -0.12440143415334D+03
 CCSD(T)
 CCSD(T)= -0.12439465347D+03

 Unable to determine electronic state:  an orbital has unidentified symmetry.
 Alpha  occ. eigenvalues --   -4.31255  -2.79567  -2.78371  -2.78371  -0.52348
 Alpha  occ. eigenvalues --   -0.52348  -0.50878  -0.48663  -0.45943  -0.31436
 Alpha virt. eigenvalues --   -0.00019   0.02191   0.02191   0.02477   0.03689
 Alpha virt. eigenvalues --    0.05833   0.06255   0.06265   0.06311   0.06311
 Alpha virt. eigenvalues --    0.07367   0.07367   0.08365   0.13059   0.17114

 Mulliken charges and spin densities:
               1          2
     1  Fe   0.285992   2.993655
     2  H   -0.285992   0.006345
 Sum of Mulliken charges =  -0.00000   3.00000

 Dipole moment (field-independent basis, Debye):
    X=              0.0000    Y=              0.0000    Z=              3.7373  Tot=              3.7373
 Quadrupole moment (field-independent basis, Debye-Ang):
   XX=            -15.9942   YY=            -15.9942   ZZ=            -16.3362
   XY=              0.0000   XZ=              0.0000   YZ=              0.0000

 \\#P ROCCSD(T)=(maxcyc=100, Full)/Gen SCF=(maxcycle=400, symm) Pseudo=
 3636902\CCSD(T)=-124.3946535\RMSD=6.840e-09\PG=C*V [C*(H1Fe1)]\\@
 Normal termination of Gaussian 16 at Mon Feb 12 23:58:35 2018.
