 Gaussian 16, Revision A.03,
 Gaussian 16:  ES64L-G16RevA.03 25-Dec-2016

 ----------------------------------------------------------------------
 #P ROCCSD(T)=(maxcyc=100, Full)/Gen SCF=(maxcycle=400, symm) Pseudo=Re
 ad Integral(NoXCTest) Pop=Regular MaxDisk=500GB Guess=Permute IOp(5/15
 =2)
 ----------------------------------------------------------------------

 ---
 FeH
 ---
 Symbolic Z-matrix:
 Charge =  0 Multiplicity = 4

                         Standard orientation:
 ---------------------------------------------------------------------
 Center     Atomic      Atomic             Coordinates (Angstroms)
 Number     Number       Type             X           Y           Z
 ---------------------------------------------------------------------
      1         26           0        0.000000    0.000000    0.051852
      2          1           0        0.000000    0.000000   -1.348148
 ---------------------------------------------------------------------

 SCF Done:  E(ROHF) =  -123.577679982     A.U. after  105 cycles
 E2 =    -0.8093479449D+00 EUMP2 =    -0.12438702792639D+03
 CCSD(T)
 CCSD(T)= -0.12438228038D+03

 Unable to determine electronic state:  partially filled degenerate orbitals.
 Alpha  occ. eigenvalues --   -4.31257  -2.79571  -2.78375  -2.78375  -0.52351
 Alpha  occ. eigenvalues --   -0.52351  -0.50882  -0.48662  -0.45941  -0.31436
 Alpha virt. eigenvalues --    0.00022   0.02257   0.02257   0.02771   0.04282
 Alpha virt. eigenvalues --    0.06240   0.06830   0.06841   0.06841   0.06842
 Alpha virt. eigenvalues --    0.07708   0.07708   0.09546   0.16966   0.17908

 Mulliken charges and spin densities:
               1          2
     1  Fe   0.290226   2.994167
     2  H   -0.290226   0.005833
 Sum of Mulliken charges =  -0.00000   3.00000

 Dipole moment (field-independent basis, Debye):
    X=              0.0000    Y=              0.0000    Z=              3.7374  Tot=              3.7374
 Quadrupole moment (field-independent basis, Debye-Ang):
   XX=            -15.9962   YY=            -15.9962   ZZ=            -16.3343
   XY=              0.0000   XZ=              0.0000   YZ=              0.0000

 \\#P ROCCSD(T)=(maxcyc=100, Full)/Gen SCF=(maxcycle=400, symm) Pseudo=
 305\CCSD(T)=-124.3822804\RMSD=4.635e-09\PG=C*V [C*(H1Fe1)]\\@
 Normal termination of Gaussian 16 at Mon Feb 12 22:17:57 2018.
