 Gaussian 16, Revision A.03,
 Gaussian 16:  ES64L-G16RevA.03 25-Dec-2016

 ----------------------------------------------------------------------
 #P ROCCSD(T)=(maxcyc=100, Full)/Gen SCF=(maxcycle=400, symm) Pseudo=Re
 ad Integral(NoXCTest) Pop=Regular MaxDisk=500GB Guess=Permute IOp(5/15
 =2)
 ----------------------------------------------------------------------

 ---
 FeH
 ---
 Symbolic Z-matrix:
 Charge =  0 Multiplicity = 4

                         Standard orientation:
 ---------------------------------------------------------------------
 Center     Atomic      Atomic             Coordinates (Angstroms)
 Number     Number       Type             X           Y           Z
 ---------------------------------------------------------------------
      1         26           0        0.000000    0.000000    0.051852
      2          1           0        0.000000    0.000000   -1.348148
 ---------------------------------------------------------------------

 SCF Done:  E(ROHF) =  -123.576518522     A.U. after   30 cycles
 E2 =    -0.7738767231D+00 EUMP2 =    -0.12435039524467D+03
 CCSD(T)
 CCSD(T)= -0.12434770958D+03

 Unable to determine electronic state:  an orbital has unidentified symmetry.
 Alpha  occ. eigenvalues --   -4.31260  -2.79583  -2.78384  -2.78384  -0.52352
 Alpha  occ. eigenvalues --   -0.52352  -0.50881  -0.48658  -0.45939  -0.31434
 Alpha virt. eigenvalues --    0.00048   0.02483   0.02483   0.03035   0.04508
 Alpha virt. eigenvalues --    0.08457   0.08457   0.09609   0.10301   0.10337
 Alpha virt. eigenvalues --    0.10359   0.10359   0.10585   0.16966   0.24518

 Mulliken charges and spin densities:
               1          2
     1  Fe   0.395303   2.995807
     2  H   -0.395303   0.004193
 Sum of Mulliken charges =  -0.00000   3.00000

 Dipole moment (field-independent basis, Debye):
    X=              0.0000    Y=              0.0000    Z=              3.7415  Tot=              3.7415
 Quadrupole moment (field-independent basis, Debye-Ang):
   XX=            -16.0067   YY=            -16.0067   ZZ=            -16.3282
   XY=              0.0000   XZ=              0.0000   YZ=              0.0000

 \\#P ROCCSD(T)=(maxcyc=100, Full)/Gen SCF=(maxcycle=400, symm) Pseudo=
 187118\CCSD(T)=-124.3477096\RMSD=9.194e-09\PG=C*V [C*(H1Fe1)]\\@
 Normal termination of Gaussian 16 at Mon Feb 12 21:39:32 2018.
