 Gaussian 16, Revision A.03,
 Gaussian 16:  ES64L-G16RevA.03 25-Dec-2016

 ----------------------------------------------------------------------
 #P ROCCSD(T)=(MaxCyc=150, Window=(7,0))/Gen SCF=(maxcycle=400) Integra
 l(DKHSO, NoXCTest) Pop=Regular MaxDisk=500GB Guess=Read IOp(5/15=2)
 ----------------------------------------------------------------------

 ---
 NiO
 ---
 Symbolic Z-matrix:
 Charge =  0 Multiplicity = 3

                         Standard orientation:
 ---------------------------------------------------------------------
 Center     Atomic      Atomic             Coordinates (Angstroms)
 Number     Number       Type             X           Y           Z
 ---------------------------------------------------------------------
      1         28           0        0.000000    0.000000    0.377778
      2          8           0        0.000000    0.000000   -1.322222
 ---------------------------------------------------------------------

 SCF Done:  E(ROHF) =  -1593.91256762     A.U. after   16 cycles
 E2 =    -0.1155469759D+01 EUMP2 =    -0.15950680373807D+04
 CCSD(T)
 CCSD(T)= -0.15950824761D+04

 The electronic state is 3-SG.
 Alpha  occ. eigenvalues -- -308.82933 -38.69600 -33.17676 -33.14150 -33.14150
 Alpha  occ. eigenvalues --  -20.49005  -5.13142  -3.50423  -3.42459  -3.42459
 Alpha  occ. eigenvalues --   -1.14228  -0.80567  -0.80567  -0.74364  -0.71714
 Alpha  occ. eigenvalues --   -0.71714  -0.38117  -0.38117  -0.36716
 Alpha virt. eigenvalues --   -0.05541   0.02127   0.02131   0.02131   0.04303
 Alpha virt. eigenvalues --    0.07843   0.07843   0.10574   0.12059   0.12059
 Alpha virt. eigenvalues --    0.13188   0.13188   0.15302   0.16081   0.26239

 Mulliken charges and spin densities:
               1          2
     1  Ni   1.067381   1.925909
     2  O   -1.067381   0.074091
 Sum of Mulliken charges =   0.00000   2.00000

 Dipole moment (field-independent basis, Debye):
    X=              0.0000    Y=              0.0000    Z=              8.1495  Tot=              8.1495
 Quadrupole moment (field-independent basis, Debye-Ang):
   XX=            -18.8708   YY=            -18.8708   ZZ=            -22.0465
   XY=              0.0000   XZ=              0.0000   YZ=              0.0000

 1\1\GINC-C497-073\SP\ROCCSD(T)-RW\Gen\Ni1O1(3)\GWANG18\17-Mar-2018\0\\
 #P ROCCSD(T)=(MaxCyc=150, Window=(7,0))/Gen SCF=(maxcycle=400) Integra
 l(DKHSO, NoXCTest) Pop=Regular MaxDisk=500GB Guess=Read IOp(5/15=2)\\N
 iO\\0,3\Ni,0,0.,0.,0.\O,0,0.,0.,1.7\\Version=ES64L-G16RevA.03\State=3-
 SG\HF=-1593.9125676\MP2=-1595.0680374\MP3=-1594.9332529\PUHF=-1593.912
 5676\PMP2-0=-1595.0680374\MP4SDQ=-1595.0307618\CCSD=-1595.0189278\CCSD
 (T)=-1595.0824761\RMSD=9.913e-09\PG=C*V [C*(O1Ni1)]\\@

 Normal termination of Gaussian 16 at Sat Mar 17 03:45:12 2018.
