 Gaussian 16, Revision A.03,
 Gaussian 16:  ES64L-G16RevA.03 25-Dec-2016

 ----------------------------------------------------------------------
 #P ROCCSD(T)=(maxcyc=150, Window=(6,0), SaveAmplitudes, ReadAmplitudes
 )/Gen 5d 7f SCF=(maxcycles=300) Integral(NoXCTest, DKHSO) MaxDisk=500G
 B Pop=Regular Guess=Read
 ----------------------------------------------------------------------

 ---
 CrH
 ---
 Symbolic Z-matrix:
 Charge =  0 Multiplicity = 6

                         Standard orientation:
 ---------------------------------------------------------------------
 Center     Atomic      Atomic             Coordinates (Angstroms)
 Number     Number       Type             X           Y           Z
 ---------------------------------------------------------------------
      1         24           0        0.000000    0.000000    0.064000
      2          1           0        0.000000    0.000000   -1.536000
 ---------------------------------------------------------------------

 SCF Done:  E(ROHF) =  -1050.20169503     A.U. after   24 cycles
 E2 =    -0.5478877221D+00 EUMP2 =    -0.10507495827559D+04
 CCSD(T)
 CCSD(T)= -0.10507885523D+04

 The electronic state is 6-SG.
 Alpha  occ. eigenvalues -- -222.18945 -26.78186 -22.41597 -22.41597 -22.41560
 Alpha  occ. eigenvalues --   -3.65602  -2.41055  -2.41055  -2.37275  -0.53072
 Alpha  occ. eigenvalues --   -0.53072  -0.49997  -0.49997  -0.41755  -0.25746
 Alpha virt. eigenvalues --    0.01327   0.01327   0.02006   0.02323   0.04626
 Alpha virt. eigenvalues --    0.05115   0.05115   0.05363   0.05363   0.05666
 Alpha virt. eigenvalues --    0.05666   0.06746   0.09567   0.12554   0.16797

 Mulliken charges and spin densities:
               1          2
     1  Cr   0.327548   4.980885
     2  H   -0.327548   0.019115
 Sum of Mulliken charges =  -0.00000   5.00000

 Dipole moment (field-independent basis, Debye):
    X=             -0.0000    Y=              0.0000    Z=              1.9678  Tot=              1.9678
 Quadrupole moment (field-independent basis, Debye-Ang):
   XX=            -17.2725   YY=            -17.2725   ZZ=            -23.5822
   XY=             -0.0000   XZ=             -0.0000   YZ=              0.0000

 1\1\GINC-C505-052\SP\ROCCSD(T)-RW\Gen\Cr1H1(6)\AANNABE\26-Feb-2018\0\\
 #P ROCCSD(T)=(maxcyc=150, Window=(6,0), SaveAmplitudes, ReadAmplitudes
 )/Gen 5d 7f SCF=(maxcycles=300) Integral(NoXCTest, DKHSO) MaxDisk=500G
 B Pop=Regular Guess=Read\\CrH\\0,6\Cr,0,0.,0.,0.\H,0,0.,0.,1.6\\Versio
 n=ES64L-G16RevA.03\State=6-SG\HF=-1050.201695\MP2=-1050.7495828\PUHF=-
 1050.201695\PMP2-0=-1050.7495828\CCSD=-1050.7718697\CCSD(T)=-1050.7885
 523\RMSD=6.239e-09\PG=C*V [C*(H1Cr1)]\\@

 Normal termination of Gaussian 16 at Mon Feb 26 00:31:06 2018.
