 Gaussian 16, Revision A.03,
 Gaussian 16:  ES64L-G16RevA.03 25-Dec-2016

 ----------------------------------------------------------------------
 #P ROCCSD(T)=(maxcyc=150, Full)/Gen 5d 7f SCF=(maxcycles=300) MaxDisk=
 500GB Pop=Regular Pseudo=Read Guess=Read
 ----------------------------------------------------------------------

 --
 Sc
 --
 Symbolic Z-matrix:
 Charge =  0 Multiplicity = 2

                         Standard orientation:
 ---------------------------------------------------------------------
 Center     Atomic      Atomic             Coordinates (Angstroms)
 Number     Number       Type             X           Y           Z
 ---------------------------------------------------------------------
      1         21           0        0.000000    0.000000    0.000000
 ---------------------------------------------------------------------

 SCF Done:  E(ROHF) =  -46.2569860402     A.U. after   15 cycles
 E2 =    -0.3846886457D+00 EUMP2 =    -0.46641674685955D+02
 CCSD(T)
 CCSD(T)= -0.46676630865D+02

 Unable to determine electronic state:  an orbital has unidentified symmetry.
 Alpha  occ. eigenvalues --   -2.66402  -1.62802  -1.62802  -1.58954  -0.34383
 Alpha  occ. eigenvalues --   -0.21672
 Alpha virt. eigenvalues --    0.01211   0.01299   0.01299   0.02118   0.02887
 Alpha virt. eigenvalues --    0.02890   0.02890   0.02899   0.02919   0.04350
 Alpha virt. eigenvalues --    0.04472   0.04472   0.08136   0.08249   0.08249

 Mulliken charges and spin densities:
               1          2
     1  Sc   0.000000   1.000000
 Sum of Mulliken charges =   0.00000   1.00000

 Dipole moment (field-independent basis, Debye):
    X=              0.0000    Y=              0.0000    Z=              0.0000  Tot=              0.0000
 Quadrupole moment (field-independent basis, Debye-Ang):
   XX=            -23.1621   YY=            -23.1621   ZZ=            -22.8512
   XY=              0.0000   XZ=              0.0000   YZ=             -0.0000

 1\1\GINC-C455-031\SP\ROCCSD(T)-Full\Gen\Sc1(2)\AANNABE\16-Feb-2018\0\\
 #P ROCCSD(T)=(maxcyc=150, Full)/Gen 5d 7f SCF=(maxcycles=300) MaxDisk=
 500GB Pop=Regular Pseudo=Read Guess=Read\\Sc\\0,2\Sc,0,0.,0.,0.\\Versi
 on=ES64L-G16RevA.03\HF=-46.256986\MP2=-46.6416747\MP3=-46.6614881\PUHF
 =-46.256986\PMP2-0=-46.6416747\MP4SDQ=-46.6609926\CCSD=-46.661229\CCSD
 (T)=-46.6766309\RMSD=1.348e-09\PG=OH [O(Sc1)]\\@

 Normal termination of Gaussian 16 at Fri Feb 16 12:01:33 2018.
