 Gaussian 16, Revision A.03,
 Gaussian 16:  ES64L-G16RevA.03 25-Dec-2016

 ----------------------------------------------------------------------
 #P ROCCSD(T)=(maxcyc=150, Full)/Gen 5d 7f SCF=(maxcycles=300) Integral
 (NoXCTest) MaxDisk=500GB Pop=Regular Pseudo=Read IOp(5/15=2) Guess=Rea
 d
 ----------------------------------------------------------------------

 ---
 ScH
 ---
 Symbolic Z-matrix:
 Charge =  0 Multiplicity = 1

                         Standard orientation:
 ---------------------------------------------------------------------
 Center     Atomic      Atomic             Coordinates (Angstroms)
 Number     Number       Type             X           Y           Z
 ---------------------------------------------------------------------
      1         21           0        0.000000    0.000000    0.086364
      2          1           0        0.000000    0.000000   -1.813636
 ---------------------------------------------------------------------

 SCF Done:  E(ROHF) =  -46.7944741377     A.U. after   11 cycles
 E2 =    -0.4054526959D+00 EUMP2 =    -0.47199926833613D+02
 CCSD(T)
 CCSD(T)= -0.47246190545D+02

 The electronic state is 1-SG.
 Alpha  occ. eigenvalues --   -2.74122  -1.67492  -1.67492  -1.67349  -0.39242
 Alpha  occ. eigenvalues --   -0.23712
 Alpha virt. eigenvalues --    0.01112   0.01112   0.01482   0.02236   0.03573
 Alpha virt. eigenvalues --    0.03813   0.03813   0.03936   0.03936   0.04468
 Alpha virt. eigenvalues --    0.04468   0.04623   0.07953   0.07953   0.08863

 Mulliken charges and spin densities:
               1          2
     1  Sc   0.330248   0.000000
     2  H   -0.330248   0.000000
 Sum of Mulliken charges =   0.00000   0.00000

 Dipole moment (field-independent basis, Debye):
    X=              0.0000    Y=              0.0000    Z=              1.8215  Tot=              1.8215
 Quadrupole moment (field-independent basis, Debye-Ang):
   XX=            -22.8301   YY=            -22.8301   ZZ=            -27.4987
   XY=              0.0000   XZ=              0.0000   YZ=              0.0000

 P ROCCSD(T)=(maxcyc=150, Full)/Gen 5d 7f SCF=(maxcycles=300) Integral(
 PMP2-0=-47.1999268\MP4SDQ=-47.2276419\CCSD=-47.2276323\CCSD(T)=-47.246
 Normal termination of Gaussian 16 at Wed Feb 14 06:51:38 2018.
