 Gaussian 16, Revision A.03,
 Gaussian 16:  ES64L-G16RevA.03 25-Dec-2016

 ----------------------------------------------------------------------
 #P ROCCSD(T)=(MaxCyc=150, FrzINGC)/Gen SCF=(maxcycle=400, vshift=200)
 Integral(DKHSO, NoXCTest) Pop=Regular MaxDisk=500GB Guess=Read IOp(5/1
 5=2)
 ----------------------------------------------------------------------

 ---
 ZnH
 ---
 Symbolic Z-matrix:
 Charge =  0 Multiplicity = 2

                         Standard orientation:
 ---------------------------------------------------------------------
 Center     Atomic      Atomic             Coordinates (Angstroms)
 Number     Number       Type             X           Y           Z
 ---------------------------------------------------------------------
      1         30           0        0.000000    0.000000    0.041935
      2          1           0        0.000000    0.000000   -1.258065
 ---------------------------------------------------------------------

 SCF Done:  E(ROHF) =  -1794.77419015     A.U. after   26 cycles
 E2 =    -0.1045658876D+01 EUMP2 =    -0.17958198490257D+04
 CCSD(T)
 CCSD(T)= -0.17957491998D+04

 The electronic state is 2-SG.
 Alpha  occ. eigenvalues -- -357.59512 -45.36631 -39.16868 -39.16868 -39.16835
 Alpha  occ. eigenvalues --   -5.83657  -3.91835  -3.91333  -3.91333  -0.81660
 Alpha  occ. eigenvalues --   -0.80078  -0.80078  -0.79893  -0.79893  -0.48458
 Alpha  occ. eigenvalues --   -0.26865
 Alpha virt. eigenvalues --    0.02158   0.02158   0.02673   0.04104   0.07794
 Alpha virt. eigenvalues --    0.07794   0.08929   0.15924   0.19139   0.24426
 Alpha virt. eigenvalues --    0.24426   0.25122   0.25122   0.26493   0.28836

 Mulliken charges and spin densities:
               1          2
     1  Zn   0.301918   0.954726
     2  H   -0.301918   0.045274
 Sum of Mulliken charges =  -0.00000   1.00000

 Dipole moment (field-independent basis, Debye):
    X=              0.0000    Y=              0.0000    Z=             -0.0418  Tot=              0.0418
 Quadrupole moment (field-independent basis, Debye-Ang):
   XX=            -14.6336   YY=            -14.6336   ZZ=            -20.7834
   XY=              0.0000   XZ=              0.0000   YZ=              0.0000

 \#P ROCCSD(T)=(MaxCyc=150, FrzINGC)/Gen SCF=(maxcycle=400, vshift=200)
 8\CCSD(T)=-1795.7491998\RMSD=7.798e-09\PG=C*V [C*(H1Zn1)]\\@
 Normal termination of Gaussian 16 at Sat Apr 21 10:33:08 2018.
