 Gaussian 16, Revision A.03,
 Gaussian 16:  ES64L-G16RevA.03 25-Dec-2016

 ----------------------------------------------------------------------
 #P ROCCSD(T)=(maxcyc=150, Full, SaveAmplitudes, ReadAmplitudes)/Gen 5d
  7f SCF=(maxcycles=300) Integral(NoXCTest, DKHSO) MaxDisk=500GB Pop=Re
 gular Guess=Read IOp(5/15=2)
 ----------------------------------------------------------------------

 ---
 CrO
 ---
 Symbolic Z-matrix:
 Charge =  0 Multiplicity = 5

                         Standard orientation:
 ---------------------------------------------------------------------
 Center     Atomic      Atomic             Coordinates (Angstroms)
 Number     Number       Type             X           Y           Z
 ---------------------------------------------------------------------
      1         24           0        0.000000    0.000000    0.300000
      2          8           0        0.000000    0.000000   -0.900000
 ---------------------------------------------------------------------

 SCF Done:  E(ROHF) =  -1124.24226842     A.U. after   34 cycles
 E2 =    -0.1322097276D+01 EUMP2 =    -0.11255643656908D+04
 CCSD(T)
 CCSD(T)= -0.11255574208D+04

 Unable to determine electronic state:  an orbital has unidentified symmetry.
 Alpha  occ. eigenvalues -- -222.21314 -26.80227 -22.43656 -22.43514 -22.43068
 Alpha  occ. eigenvalues --  -20.63976  -3.68307  -2.47739  -2.42179  -2.38928
 Alpha  occ. eigenvalues --   -1.25222  -0.74841  -0.69000  -0.65543  -0.50341
 Alpha  occ. eigenvalues --   -0.50249  -0.29887  -0.26485
 Alpha virt. eigenvalues --    0.01455   0.02445   0.02810   0.02814   0.05426
 Alpha virt. eigenvalues --    0.07019   0.07669   0.07740   0.07792   0.07795
 Alpha virt. eigenvalues --    0.09724   0.09960   0.12224   0.17912   0.20671

 Mulliken charges and spin densities:
               1          2
     1  Cr   0.807017   3.720511
     2  O   -0.807017   0.279489
 Sum of Mulliken charges =  -0.00000   4.00000

 Dipole moment (field-independent basis, Debye):
    X=              0.0000    Y=              0.0000    Z=              0.2493  Tot=              0.2493
 Quadrupole moment (field-independent basis, Debye-Ang):
   XX=            -23.2716   YY=            -20.3119   ZZ=            -23.2191
   XY=             -0.0000   XZ=             -0.0000   YZ=              0.0000

 \\#P ROCCSD(T)=(maxcyc=150, Full, SaveAmplitudes, ReadAmplitudes)/Gen
 CSD=-1125.5169606\CCSD(T)=-1125.5574208\RMSD=8.675e-09\PG=C*V [C*(O1Cr
 Normal termination of Gaussian 16 at Wed Mar  7 00:45:58 2018.
