 Gaussian 16, Revision A.03,
 Gaussian 16:  ES64L-G16RevA.03 25-Dec-2016

 ----------------------------------------------------------------------
 #P ROCCSD(T)=(MaxCyc=150, Full)/Gen SCF=(maxcycle=400, vshift=200) Pse
 udo=Read Integral(NoXCTest) Pop=Regular MaxDisk=500GB Guess=Read
 ----------------------------------------------------------------------

 ---
 NiO
 ---
 Symbolic Z-matrix:
 Charge =  0 Multiplicity = 3

                         Standard orientation:
 ---------------------------------------------------------------------
 Center     Atomic      Atomic             Coordinates (Angstroms)
 Number     Number       Type             X           Y           Z
 ---------------------------------------------------------------------
      1         28           0        0.000000    0.000000    0.400000
      2          8           0        0.000000    0.000000   -1.400000
 ---------------------------------------------------------------------

 SCF Done:  E(ROHF) =  -184.110947891     A.U. after   21 cycles
 E2 =    -0.1206070698D+01 EUMP2 =    -0.18531701858930D+03
 CCSD(T)
 CCSD(T)= -0.18534936114D+03

 The electronic state is 3-SG.
 Alpha  occ. eigenvalues --   -5.19919  -3.54000  -3.45803  -3.45803  -1.14706
 Alpha  occ. eigenvalues --   -0.81475  -0.81475  -0.75881  -0.72841  -0.72841
 Alpha  occ. eigenvalues --   -0.38908  -0.38908  -0.35682
 Alpha virt. eigenvalues --   -0.05579   0.01728   0.01728   0.01856   0.03857
 Alpha virt. eigenvalues --    0.06625   0.06625   0.07633   0.07927   0.07927
 Alpha virt. eigenvalues --    0.08837   0.08837   0.12434   0.14899   0.21633

 Mulliken charges and spin densities:
               1          2
     1  Ni   0.936068   1.953642
     2  O   -0.936068   0.046358
 Sum of Mulliken charges =  -0.00000   2.00000

 Dipole moment (field-independent basis, Debye):
    X=              0.0000    Y=              0.0000    Z=              7.9154  Tot=              7.9154
 Quadrupole moment (field-independent basis, Debye-Ang):
   XX=            -18.8671   YY=            -18.8671   ZZ=            -22.3739
   XY=              0.0000   XZ=              0.0000   YZ=              0.0000

 \\#P ROCCSD(T)=(MaxCyc=150, Full)/Gen SCF=(maxcycle=400, vshift=200) P
 PMP2-0=-185.3170186\MP4SDQ=-185.2798806\CCSD=-185.2783169\CCSD(T)=-185
 Normal termination of Gaussian 16 at Fri Aug 17 13:16:15 2018.
