 Gaussian 16, Revision A.03,
 Gaussian 16:  ES64L-G16RevA.03 25-Dec-2016

 ----------------------------------------------------------------------
 #P ROCCSD(T)=(MaxCyc=150, Full)/Gen SCF=(maxcycle=400, vshift=200) Pse
 udo=Read Integral(NoXCTest) Pop=Regular MaxDisk=500GB Guess=Read
 ----------------------------------------------------------------------

 ---
 NiO
 ---
 Symbolic Z-matrix:
 Charge =  0 Multiplicity = 3

                         Standard orientation:
 ---------------------------------------------------------------------
 Center     Atomic      Atomic             Coordinates (Angstroms)
 Number     Number       Type             X           Y           Z
 ---------------------------------------------------------------------
      1         28           0        0.000000    0.000000    0.400000
      2          8           0        0.000000    0.000000   -1.400000
 ---------------------------------------------------------------------

 SCF Done:  E(ROHF) =  -184.124720215     A.U. after   21 cycles
 E2 =    -0.1202495276D+01 EUMP2 =    -0.18532721549078D+03
 CCSD(T)
 CCSD(T)= -0.18536115342D+03

 The electronic state is 3-SG.
 Alpha  occ. eigenvalues --   -5.22440  -3.52436  -3.44192  -3.44192  -1.14701
 Alpha  occ. eigenvalues --   -0.81547  -0.81547  -0.75931  -0.72865  -0.72865
 Alpha  occ. eigenvalues --   -0.38903  -0.38903  -0.35687
 Alpha virt. eigenvalues --   -0.05588   0.01727   0.01727   0.01854   0.03857
 Alpha virt. eigenvalues --    0.06623   0.06623   0.07632   0.07927   0.07927
 Alpha virt. eigenvalues --    0.08836   0.08836   0.12433   0.14896   0.21624

 Mulliken charges and spin densities:
               1          2
     1  Ni   0.936145   1.953753
     2  O   -0.936145   0.046247
 Sum of Mulliken charges =  -0.00000   2.00000

 Dipole moment (field-independent basis, Debye):
    X=              0.0000    Y=              0.0000    Z=              7.9180  Tot=              7.9180
 Quadrupole moment (field-independent basis, Debye-Ang):
   XX=            -18.8576   YY=            -18.8576   ZZ=            -22.3639
   XY=              0.0000   XZ=              0.0000   YZ=              0.0000

 \\#P ROCCSD(T)=(MaxCyc=150, Full)/Gen SCF=(maxcycle=400, vshift=200) P
 PMP2-0=-185.3272155\MP4SDQ=-185.2913812\CCSD=-185.2903065\CCSD(T)=-185
 Normal termination of Gaussian 16 at Fri May  4 14:05:19 2018.
