 Gaussian 16, Revision A.03,
 Gaussian 16:  ES64L-G16RevA.03 25-Dec-2016

 ----------------------------------------------------------------------
 #P ROCCSD(T)=(MaxCyc=150, Full)/Gen SCF=(maxcycle=400, vshift=200) Pse
 udo=Read Integral(NoXCTest) Pop=Regular MaxDisk=500GB Guess=Read
 ----------------------------------------------------------------------

 ---
 NiO
 ---
 Symbolic Z-matrix:
 Charge =  0 Multiplicity = 3

                         Standard orientation:
 ---------------------------------------------------------------------
 Center     Atomic      Atomic             Coordinates (Angstroms)
 Number     Number       Type             X           Y           Z
 ---------------------------------------------------------------------
      1         28           0        0.000000    0.000000    0.400000
      2          8           0        0.000000    0.000000   -1.400000
 ---------------------------------------------------------------------

 SCF Done:  E(ROHF) =  -184.107496113     A.U. after   25 cycles
 E2 =    -0.1149282229D+01 EUMP2 =    -0.18525677834203D+03
 CCSD(T)
 CCSD(T)= -0.18529073899D+03

 The electronic state is 3-SG.
 Alpha  occ. eigenvalues --   -5.19932  -3.54025  -3.45823  -3.45823  -1.14742
 Alpha  occ. eigenvalues --   -0.81481  -0.81481  -0.75889  -0.72843  -0.72843
 Alpha  occ. eigenvalues --   -0.38891  -0.38891  -0.35700
 Alpha virt. eigenvalues --   -0.05594   0.02056   0.02056   0.02109   0.04265
 Alpha virt. eigenvalues --    0.07641   0.07641   0.10636   0.11989   0.11989
 Alpha virt. eigenvalues --    0.13127   0.13127   0.15042   0.16016   0.25993

 Mulliken charges and spin densities:
               1          2
     1  Ni   0.983407   1.953720
     2  O   -0.983407   0.046280
 Sum of Mulliken charges =  -0.00000   2.00000

 Dipole moment (field-independent basis, Debye):
    X=              0.0000    Y=              0.0000    Z=              7.9330  Tot=              7.9330
 Quadrupole moment (field-independent basis, Debye-Ang):
   XX=            -18.8759   YY=            -18.8759   ZZ=            -22.3887
   XY=              0.0000   XZ=              0.0000   YZ=              0.0000

 \\#P ROCCSD(T)=(MaxCyc=150, Full)/Gen SCF=(maxcycle=400, vshift=200) P
 PMP2-0=-185.2567783\MP4SDQ=-185.2254656\CCSD=-185.2226595\CCSD(T)=-185
 Normal termination of Gaussian 16 at Fri Aug 17 12:12:40 2018.
