 Gaussian 16, Revision A.03,
 Gaussian 16:  ES64L-G16RevA.03 25-Dec-2016

 ----------------------------------------------------------------------
 #P ROCCSD(T)=(MaxCyc=150, Full)/Gen SCF=(maxcycle=400, vshift=200) Pse
 udo=Read Integral(NoXCTest) Pop=Regular MaxDisk=500GB Guess=Read
 ----------------------------------------------------------------------

 ---
 NiO
 ---
 Symbolic Z-matrix:
 Charge =  0 Multiplicity = 3

                         Standard orientation:
 ---------------------------------------------------------------------
 Center     Atomic      Atomic             Coordinates (Angstroms)
 Number     Number       Type             X           Y           Z
 ---------------------------------------------------------------------
      1         28           0        0.000000    0.000000    0.400000
      2          8           0        0.000000    0.000000   -1.400000
 ---------------------------------------------------------------------

 SCF Done:  E(ROHF) =  -184.121128940     A.U. after   26 cycles
 E2 =    -0.1145581200D+01 EUMP2 =    -0.18526671013935D+03
 CCSD(T)
 CCSD(T)= -0.18530227344D+03

 The electronic state is 3-SG.
 Alpha  occ. eigenvalues --   -5.22448  -3.52459  -3.44210  -3.44210  -1.14736
 Alpha  occ. eigenvalues --   -0.81553  -0.81553  -0.75939  -0.72868  -0.72868
 Alpha  occ. eigenvalues --   -0.38887  -0.38887  -0.35704
 Alpha virt. eigenvalues --   -0.05603   0.02055   0.02055   0.02107   0.04265
 Alpha virt. eigenvalues --    0.07637   0.07637   0.10635   0.11988   0.11988
 Alpha virt. eigenvalues --    0.13127   0.13127   0.15042   0.16014   0.25994

 Mulliken charges and spin densities:
               1          2
     1  Ni   0.982961   1.953741
     2  O   -0.982961   0.046259
 Sum of Mulliken charges =  -0.00000   2.00000

 Dipole moment (field-independent basis, Debye):
    X=              0.0000    Y=              0.0000    Z=              7.9356  Tot=              7.9356
 Quadrupole moment (field-independent basis, Debye-Ang):
   XX=            -18.8665   YY=            -18.8665   ZZ=            -22.3789
   XY=              0.0000   XZ=              0.0000   YZ=              0.0000

 \\#P ROCCSD(T)=(MaxCyc=150, Full)/Gen SCF=(maxcycle=400, vshift=200) P
 PMP2-0=-185.2667101\MP4SDQ=-185.2366952\CCSD=-185.2343874\CCSD(T)=-185
 Normal termination of Gaussian 16 at Fri May  4 11:37:17 2018.
