 Gaussian 16, Revision A.03,
 Gaussian 16:  ES64L-G16RevA.03 25-Dec-2016

 ----------------------------------------------------------------------
 #P ROCCSD(T)=(maxcyc=150, Full, SaveAmplitudes, ReadAmplitudes)/Gen 5d
  7f SCF=(maxcycles=300) Integral(NoXCTest) MaxDisk=500GB Pop=Regular P
 seudo=Read Guess=Read
 ----------------------------------------------------------------------

 ---
 MnH
 ---
 Symbolic Z-matrix:
 Charge =  0 Multiplicity = 7

                         Standard orientation:
 ---------------------------------------------------------------------
 Center     Atomic      Atomic             Coordinates (Angstroms)
 Number     Number       Type             X           Y           Z
 ---------------------------------------------------------------------
      1         25           0        0.000000    0.000000    0.038462
      2          1           0        0.000000    0.000000   -0.961538
 ---------------------------------------------------------------------

 SCF Done:  E(ROHF) =  -103.962302725     A.U. after   22 cycles
 E2 =    -0.6619274229D+00 EUMP2 =    -0.10462423014760D+03
 CCSD(T)
 CCSD(T)= -0.10463734898D+03

 The electronic state is 7-SG.
 Alpha  occ. eigenvalues --   -4.09366  -2.77131  -2.74549  -2.74549  -0.71461
 Alpha  occ. eigenvalues --   -0.63941  -0.63941  -0.62676  -0.62676  -0.39121
 Alpha  occ. eigenvalues --   -0.21866
 Alpha virt. eigenvalues --    0.01141   0.01141   0.01738   0.03337   0.04934
 Alpha virt. eigenvalues --    0.04934   0.05812   0.05817   0.05817   0.06059
 Alpha virt. eigenvalues --    0.06059   0.07767   0.14120   0.16396   0.17506

 Mulliken charges and spin densities:
               1          2
     1  Mn   0.609305   5.809287
     2  H   -0.609305   0.190713
 Sum of Mulliken charges =  -0.00000   6.00000

 Dipole moment (field-independent basis, Debye):
    X=              0.0000    Y=              0.0000    Z=             -1.1537  Tot=              1.1537
 Quadrupole moment (field-independent basis, Debye-Ang):
   XX=            -16.0218   YY=            -16.0218   ZZ=            -25.5254
   XY=              0.0000   XZ=              0.0000   YZ=              0.0000

 \\#P ROCCSD(T)=(maxcyc=150, Full, SaveAmplitudes, ReadAmplitudes)/Gen
 .9623027\PMP2-0=-104.6242301\CCSD=-104.6176059\CCSD(T)=-104.637349\RMS
 Normal termination of Gaussian 16 at Sun Feb 25 18:02:17 2018.
