 Gaussian 16, Revision A.03,
 Gaussian 16:  ES64L-G16RevA.03 25-Dec-2016

 ----------------------------------------------------------------------
 #P ROCCSD(T)=(MaxCyc=150, Full)/Gen SCF=(maxcycle=400) Integral(DKHSO,
  NoXCTest) Pop=Regular MaxDisk=500GB Guess=Read IOp(5/15=2)
 ----------------------------------------------------------------------

 ---
 NiO
 ---
 Symbolic Z-matrix:
 Charge =  0 Multiplicity = 3

                         Standard orientation:
 ---------------------------------------------------------------------
 Center     Atomic      Atomic             Coordinates (Angstroms)
 Number     Number       Type             X           Y           Z
 ---------------------------------------------------------------------
      1         28           0        0.000000    0.000000    0.288889
      2          8           0        0.000000    0.000000   -1.011111
 ---------------------------------------------------------------------

 SCF Done:  E(ROHF) =  -1593.76130039     A.U. after   19 cycles
 E2 =    -0.1807288681D+01 EUMP2 =    -0.15955685890701D+04
 CCSD(T)
 CCSD(T)= -0.15955133618D+04

 The electronic state is 3-SG.
 Alpha  occ. eigenvalues -- -308.80669 -38.68511 -33.16496 -33.12692 -33.12692
 Alpha  occ. eigenvalues --  -20.54950  -5.11836  -3.50877  -3.39695  -3.39695
 Alpha  occ. eigenvalues --   -1.29056  -0.83381  -0.83381  -0.72130  -0.68524
 Alpha  occ. eigenvalues --   -0.68524  -0.45310  -0.45310  -0.35788
 Alpha virt. eigenvalues --   -0.01243   0.02501   0.02501   0.03393   0.03713
 Alpha virt. eigenvalues --    0.07603   0.07603   0.07846   0.08298   0.08298
 Alpha virt. eigenvalues --    0.09668   0.09668   0.12486   0.16467   0.22481

 Mulliken charges and spin densities:
               1          2
     1  Ni   0.726529   1.681487
     2  O   -0.726529   0.318513
 Sum of Mulliken charges =  -0.00000   2.00000

 Dipole moment (field-independent basis, Debye):
    X=             -0.0000    Y=              0.0000    Z=              4.8090  Tot=              4.8090
 Quadrupole moment (field-independent basis, Debye-Ang):
   XX=            -18.8820   YY=            -18.8820   ZZ=            -19.1453
   XY=             -0.0000   XZ=              0.0000   YZ=             -0.0000

 \\#P ROCCSD(T)=(MaxCyc=150, Full)/Gen SCF=(maxcycle=400) Integral(DKHS
 MP2-0=-1595.5685891\MP4SDQ=-1595.5090034\CCSD=-1595.4548313\CCSD(T)=-1
 Normal termination of Gaussian 16 at Fri Mar 16 15:09:19 2018.
