 Gaussian 16, Revision A.03,
 Gaussian 16:  ES64L-G16RevA.03 25-Dec-2016

 ----------------------------------------------------------------------
 #P ROCCSD(T)=(MaxCyc=150, Full)/Gen SCF=(maxcycle=400) Integral(DKHSO,
  NoXCTest) Pop=Regular MaxDisk=500GB Guess=Read IOp(5/15=2)
 ----------------------------------------------------------------------

 ---
 NiO
 ---
 Symbolic Z-matrix:
 Charge =  0 Multiplicity = 3

                         Standard orientation:
 ---------------------------------------------------------------------
 Center     Atomic      Atomic             Coordinates (Angstroms)
 Number     Number       Type             X           Y           Z
 ---------------------------------------------------------------------
      1         28           0        0.000000    0.000000    0.288889
      2          8           0        0.000000    0.000000   -1.011111
 ---------------------------------------------------------------------

 SCF Done:  E(ROHF) =  -1593.75443098     A.U. after   21 cycles
 E2 =    -0.1728710391D+01 EUMP2 =    -0.15954831413750D+04
 CCSD(T)
 CCSD(T)= -0.15954300638D+04

 The electronic state is 3-SG.
 Alpha  occ. eigenvalues -- -308.80677 -38.68536 -33.16528 -33.12717 -33.12717
 Alpha  occ. eigenvalues --  -20.55109  -5.11855  -3.50907  -3.39710  -3.39710
 Alpha  occ. eigenvalues --   -1.29130  -0.83376  -0.83376  -0.72138  -0.68517
 Alpha  occ. eigenvalues --   -0.68517  -0.45297  -0.45297  -0.35801
 Alpha virt. eigenvalues --   -0.01234   0.02854   0.02854   0.03819   0.03947
 Alpha virt. eigenvalues --    0.09579   0.09579   0.11553   0.12726   0.12726
 Alpha virt. eigenvalues --    0.12995   0.12995   0.14583   0.17971   0.26108

 Mulliken charges and spin densities:
               1          2
     1  Ni   0.949523   1.672665
     2  O   -0.949523   0.327335
 Sum of Mulliken charges =  -0.00000   2.00000

 Dipole moment (field-independent basis, Debye):
    X=              0.0000    Y=              0.0000    Z=              4.8207  Tot=              4.8207
 Quadrupole moment (field-independent basis, Debye-Ang):
   XX=            -18.8876   YY=            -18.8876   ZZ=            -19.1591
   XY=              0.0000   XZ=              0.0000   YZ=              0.0000

 \\#P ROCCSD(T)=(MaxCyc=150, Full)/Gen SCF=(maxcycle=400) Integral(DKHS
 2-0=-1595.4831414\MP4SDQ=-1595.4294658\CCSD=-1595.3743148\CCSD(T)=-159
 Normal termination of Gaussian 16 at Fri Mar 16 08:04:19 2018.
