 Gaussian 16, Revision A.03,
 Gaussian 16:  ES64L-G16RevA.03 25-Dec-2016

 ----------------------------------------------------------------------
 #P ROCCSD(T)=(maxcyc=150, Full, SaveAmplitudes, ReadAmplitudes)/Gen 5d
  7f SCF=(maxcycles=300) Integral(NoXCTest) MaxDisk=500GB Pop=Regular P
 seudo=Read Guess=Read IOp(5/15=2)
 ----------------------------------------------------------------------

 ---
 MnO
 ---
 Symbolic Z-matrix:
 Charge =  0 Multiplicity = 6

                         Standard orientation:
 ---------------------------------------------------------------------
 Center     Atomic      Atomic             Coordinates (Angstroms)
 Number     Number       Type             X           Y           Z
 ---------------------------------------------------------------------
      1         25           0        0.000000    0.000000    0.363636
      2          8           0        0.000000    0.000000   -1.136364
 ---------------------------------------------------------------------

 SCF Done:  E(ROHF) =  -119.156869303     A.U. after   46 cycles
 E2 =    -0.9237880303D+00 EUMP2 =    -0.12008065733347D+03
 CCSD(T)
 CCSD(T)= -0.12009533359D+03

 The electronic state is 6-SG.
 Alpha  occ. eigenvalues --   -4.16015  -2.79985  -2.79985  -2.77592  -1.19864
 Alpha  occ. eigenvalues --   -0.67952  -0.67952  -0.63710  -0.63710  -0.53380
 Alpha  occ. eigenvalues --   -0.38912  -0.38912  -0.33503
 Alpha virt. eigenvalues --   -0.00514   0.01974   0.01974   0.03260   0.03878
 Alpha virt. eigenvalues --    0.06871   0.06871   0.08656   0.08656   0.08793
 Alpha virt. eigenvalues --    0.09464   0.09464   0.13174   0.14622   0.23195

 Mulliken charges and spin densities:
               1          2
     1  Mn   1.022887   4.820228
     2  O   -1.022887   0.179772
 Sum of Mulliken charges =  -0.00000   5.00000

 Dipole moment (field-independent basis, Debye):
    X=              0.0000    Y=              0.0000    Z=              6.1566  Tot=              6.1566
 Quadrupole moment (field-independent basis, Debye-Ang):
   XX=            -19.3544   YY=            -19.3544   ZZ=            -22.8512
   XY=              0.0000   XZ=              0.0000   YZ=              0.0000

 \\#P ROCCSD(T)=(maxcyc=150, Full, SaveAmplitudes, ReadAmplitudes)/Gen
 0707016\CCSD=-120.0530927\CCSD(T)=-120.0953336\RMSD=8.843e-09\PG=C*V [
 Normal termination of Gaussian 16 at Sat Mar 10 07:29:25 2018.
