 Gaussian 16, Revision A.03,
 Gaussian 16:  ES64L-G16RevA.03 25-Dec-2016

 ----------------------------------------------------------------------
 #P ROCCSD(T)=(MaxCyc=150, Window=(7,0))/Gen SCF=(maxcycle=400) Integra
 l(DKHSO, NoXCTest) Pop=Regular MaxDisk=500GB Guess=Read IOp(5/15=2)
 ----------------------------------------------------------------------

 ---
 ZnO
 ---
 Symbolic Z-matrix:
 Charge =  0 Multiplicity = 1

                         Standard orientation:
 ---------------------------------------------------------------------
 Center     Atomic      Atomic             Coordinates (Angstroms)
 Number     Number       Type             X           Y           Z
 ---------------------------------------------------------------------
      1         30           0        0.000000    0.000000    0.357895
      2          8           0        0.000000    0.000000   -1.342105
 ---------------------------------------------------------------------

 SCF Done:  E(ROHF) =  -1869.07385825     A.U. after   12 cycles
 E2 =    -0.1332548456D+01 EUMP2 =    -0.18704064067092D+04
 CCSD(T)
 CCSD(T)= -0.18703287184D+04

 The electronic state is 1-SG.
 Alpha  occ. eigenvalues -- -357.61968 -45.38744 -39.19101 -39.19101 -39.18836
 Alpha  occ. eigenvalues --  -20.51193  -5.85691  -3.93707  -3.93550  -3.93550
 Alpha  occ. eigenvalues --   -1.15450  -0.82749  -0.82749  -0.82160  -0.82160
 Alpha  occ. eigenvalues --   -0.80355  -0.40084  -0.40084  -0.37469
 Alpha virt. eigenvalues --   -0.04727   0.02604   0.02604   0.02646   0.04673
 Alpha virt. eigenvalues --    0.08826   0.08826   0.13309   0.17551   0.22017
 Alpha virt. eigenvalues --    0.23631   0.23631   0.24639   0.24639   0.30035

 Mulliken charges and spin densities:
               1          2
     1  Zn   1.027389   0.000000
     2  O   -1.027389   0.000000
 Sum of Mulliken charges =  -0.00000   0.00000

 Dipole moment (field-independent basis, Debye):
    X=              0.0000    Y=              0.0000    Z=              7.0787  Tot=              7.0787
 Quadrupole moment (field-independent basis, Debye-Ang):
   XX=            -18.3854   YY=            -18.3854   ZZ=            -21.9136
   XY=              0.0000   XZ=              0.0000   YZ=              0.0000

 ROCCSD(T)=(MaxCyc=150, Window=(7,0))/Gen SCF=(maxcycle=400) Integral(D
 Normal termination of Gaussian 16 at Mon Apr 16 13:10:58 2018.
