 Gaussian 16, Revision A.03,
 Gaussian 16:  ES64L-G16RevA.03 25-Dec-2016

 ----------------------------------------------------------------------
 #P ROCCSD(T)=(maxcyc=150, Full, SaveAmplitudes, ReadAmplitudes)/Gen 5d
  7f SCF=(maxcycles=300) Integral(NoXCTest) MaxDisk=500GB Pop=Regular P
 seudo=Read Guess=Read IOp(5/15=2)
 ----------------------------------------------------------------------

 ---
 MnO
 ---
 Symbolic Z-matrix:
 Charge =  0 Multiplicity = 6

                         Standard orientation:
 ---------------------------------------------------------------------
 Center     Atomic      Atomic             Coordinates (Angstroms)
 Number     Number       Type             X           Y           Z
 ---------------------------------------------------------------------
      1         25           0        0.000000    0.000000    0.290909
      2          8           0        0.000000    0.000000   -0.909091
 ---------------------------------------------------------------------

 SCF Done:  E(ROHF) =  -118.826677703     A.U. after   28 cycles
 E2 =    -0.9353665159D+00 EUMP2 =    -0.11976204421901D+03
 CCSD(T)
 CCSD(T)= -0.11976337392D+03

 The electronic state is 6-SG.
 Alpha  occ. eigenvalues --   -4.21306  -2.79383  -2.75254  -2.75254  -1.28978
 Alpha  occ. eigenvalues --   -0.78651  -0.78651  -0.66074  -0.59760  -0.59760
 Alpha  occ. eigenvalues --   -0.38336  -0.38336  -0.28804
 Alpha virt. eigenvalues --    0.02321   0.02649   0.02649   0.02966   0.07263
 Alpha virt. eigenvalues --    0.08156   0.08156   0.08824   0.08824   0.09468
 Alpha virt. eigenvalues --    0.09468   0.10890   0.11721   0.17392   0.25346

 Mulliken charges and spin densities:
               1          2
     1  Mn   0.683282   4.710478
     2  O   -0.683282   0.289522
 Sum of Mulliken charges =  -0.00000   5.00000

 Dipole moment (field-independent basis, Debye):
    X=              0.0000    Y=              0.0000    Z=              1.2831  Tot=              1.2831
 Quadrupole moment (field-independent basis, Debye-Ang):
   XX=            -20.2364   YY=            -20.2364   ZZ=            -22.3974
   XY=              0.0000   XZ=              0.0000   YZ=              0.0000

 \\#P ROCCSD(T)=(maxcyc=150, Full, SaveAmplitudes, ReadAmplitudes)/Gen
 .7378102\CCSD=-119.7257659\CCSD(T)=-119.7633739\RMSD=5.757e-09\PG=C*V
 Normal termination of Gaussian 16 at Tue Mar 13 14:22:03 2018.
