 Gaussian 16, Revision A.03,
 Gaussian 16:  ES64L-G16RevA.03 25-Dec-2016

 ----------------------------------------------------------------------
 #P ROCCSD(T)=(maxcyc=150, Full, SaveAmplitudes, ReadAmplitudes)/Gen 5d
  7f SCF=(maxcycles=300) Integral(NoXCTest) MaxDisk=500GB Pop=Regular P
 seudo=Read Guess=Read IOp(5/15=2)
 ----------------------------------------------------------------------

 ---
 ScO
 ---
 Symbolic Z-matrix:
 Charge =  0 Multiplicity = 2

                         Standard orientation:
 ---------------------------------------------------------------------
 Center     Atomic      Atomic             Coordinates (Angstroms)
 Number     Number       Type             X           Y           Z
 ---------------------------------------------------------------------
      1         21           0        0.000000    0.000000    0.331034
      2          8           0        0.000000    0.000000   -0.868966
 ---------------------------------------------------------------------

 SCF Done:  E(ROHF) =  -61.7697725043     A.U. after   18 cycles
 E2 =    -0.6574532658D+00 EUMP2 =    -0.62427225770113D+02
 CCSD(T)
 CCSD(T)= -0.62457257509D+02

 The electronic state is 2-SG.
 Alpha  occ. eigenvalues --   -2.64247  -1.81876  -1.52183  -1.52183  -1.03931
 Alpha  occ. eigenvalues --   -0.63492  -0.63492  -0.47545  -0.18009
 Alpha virt. eigenvalues --    0.01051   0.01051   0.01801   0.02751   0.03773
 Alpha virt. eigenvalues --    0.03773   0.03805   0.03805   0.03866   0.04928
 Alpha virt. eigenvalues --    0.04928   0.07225   0.11150   0.11150   0.11160

 Mulliken charges and spin densities:
               1          2
     1  Sc   1.064887   1.031696
     2  O   -1.064887  -0.031696
 Sum of Mulliken charges =  -0.00000   1.00000

 Dipole moment (field-independent basis, Debye):
    X=              0.0000    Y=              0.0000    Z=             -1.1296  Tot=              1.1296
 Quadrupole moment (field-independent basis, Debye-Ang):
   XX=            -23.3621   YY=            -23.3621   ZZ=            -28.7867
   XY=              0.0000   XZ=              0.0000   YZ=              0.0000

 \\#P ROCCSD(T)=(maxcyc=150, Full, SaveAmplitudes, ReadAmplitudes)/Gen
 22\CCSD=-62.429627\CCSD(T)=-62.4572575\RMSD=2.882e-09\PG=C*V [C*(O1Sc1
 Normal termination of Gaussian 16 at Tue Feb 20 21:15:57 2018.
