 Gaussian 16, Revision A.03,
 Gaussian 16:  ES64L-G16RevA.03 25-Dec-2016

 ----------------------------------------------------------------------
 #P ROCCSD(T)=(maxcyc=150, Full, SaveAmplitudes, ReadAmplitudes)/Gen 5d
  7f SCF=(maxcycles=300) Integral(NoXCTest, DKHSO) MaxDisk=500GB Pop=Re
 gular Guess=Read
 ----------------------------------------------------------------------

 ---
 ScO
 ---
 Symbolic Z-matrix:
 Charge =  0 Multiplicity = 2

                         Standard orientation:
 ---------------------------------------------------------------------
 Center     Atomic      Atomic             Coordinates (Angstroms)
 Number     Number       Type             X           Y           Z
 ---------------------------------------------------------------------
      1         21           0        0.000000    0.000000    0.441379
      2          8           0        0.000000    0.000000   -1.158621
 ---------------------------------------------------------------------

 SCF Done:  E(ROHF) =  -838.277039124     A.U. after   17 cycles
 E2 =    -0.1126410842D+01 EUMP2 =    -0.83940344996643D+03
 CCSD(T)
 CCSD(T)= -0.83942277620D+03

 The electronic state is 2-SG.
 Alpha  occ. eigenvalues -- -166.84492 -20.48861 -19.29219 -15.71480 -15.71480
 Alpha  occ. eigenvalues --  -15.71354  -2.62265  -1.66148  -1.60348  -1.60348
 Alpha  occ. eigenvalues --   -1.11181  -0.44085  -0.44085  -0.43802  -0.23997
 Alpha virt. eigenvalues --    0.00295   0.00295   0.01541   0.02087   0.02734
 Alpha virt. eigenvalues --    0.02734   0.03028   0.03028   0.03280   0.03394
 Alpha virt. eigenvalues --    0.03394   0.05181   0.07278   0.07278   0.09311

 Mulliken charges and spin densities:
               1          2
     1  Sc   1.256572   0.989896
     2  O   -1.256572   0.010104
 Sum of Mulliken charges =  -0.00000   1.00000

 Dipole moment (field-independent basis, Debye):
    X=              0.0000    Y=             -0.0000    Z=              3.8742  Tot=              3.8742
 Quadrupole moment (field-independent basis, Debye-Ang):
   XX=            -22.3549   YY=            -22.3549   ZZ=            -32.3251
   XY=             -0.0000   XZ=              0.0000   YZ=             -0.0000

 \\#P ROCCSD(T)=(maxcyc=150, Full, SaveAmplitudes, ReadAmplitudes)/Gen
 91\PMP2-0=-839.40345\CCSD=-839.3824002\CCSD(T)=-839.4227762\RMSD=2.984
 Normal termination of Gaussian 16 at Tue Feb 20 23:01:28 2018.
