 Gaussian 16, Revision A.03,
 Gaussian 16:  ES64L-G16RevA.03 25-Dec-2016

 ----------------------------------------------------------------------
 #P ROCCSD(T)=(maxcyc=150, Full, SaveAmplitudes, ReadAmplitudes)/Gen 5d
  7f SCF=(maxcycles=300) Integral(NoXCTest) MaxDisk=500GB Pop=Regular P
 seudo=Read Guess=Read
 ----------------------------------------------------------------------

 ---
 CrO
 ---
 Symbolic Z-matrix:
 Charge =  0 Multiplicity = 5

                         Standard orientation:
 ---------------------------------------------------------------------
 Center     Atomic      Atomic             Coordinates (Angstroms)
 Number     Number       Type             X           Y           Z
 ---------------------------------------------------------------------
      1         24           0        0.000000    0.000000    0.400000
      2          8           0        0.000000    0.000000   -1.200000
 ---------------------------------------------------------------------

 SCF Done:  E(ROHF) =  -101.823460457     A.U. after   24 cycles
 E2 =    -0.9150075444D+00 EUMP2 =    -0.10273846800182D+03
 CCSD(T)
 CCSD(T)= -0.10276313574D+03

 Unable to determine electronic state:  an orbital has unidentified symmetry.
 Alpha  occ. eigenvalues --   -3.76488  -2.53040  -2.49114  -2.45810  -1.17856
 Alpha  occ. eigenvalues --   -0.61742  -0.58274  -0.57026  -0.48040  -0.43184
 Alpha  occ. eigenvalues --   -0.38654  -0.31744
 Alpha virt. eigenvalues --   -0.00232   0.00518   0.01535   0.02649   0.03498
 Alpha virt. eigenvalues --    0.04049   0.05311   0.05311   0.05439   0.05796
 Alpha virt. eigenvalues --    0.05855   0.06308   0.10791   0.12583   0.12703

 Mulliken charges and spin densities:
               1          2
     1  Cr   1.043221   3.899293
     2  O   -1.043221   0.100707
 Sum of Mulliken charges =  -0.00000   4.00000

 Dipole moment (field-independent basis, Debye):
    X=              0.0000    Y=              0.0000    Z=              6.1057  Tot=              6.1057
 Quadrupole moment (field-independent basis, Debye-Ang):
   XX=            -20.6835   YY=            -19.5956   ZZ=            -24.0088
   XY=              0.0000   XZ=              0.0000   YZ=              0.0000

 \\#P ROCCSD(T)=(maxcyc=150, Full, SaveAmplitudes, ReadAmplitudes)/Gen
 P2-0=-102.738468\CCSD=-102.7112546\CCSD(T)=-102.7631357\RMSD=6.911e-09
 Normal termination of Gaussian 16 at Fri Mar  9 17:58:12 2018.
