 Gaussian 16, Revision A.03,
 Gaussian 16:  ES64L-G16RevA.03 25-Dec-2016

 ----------------------------------------------------------------------
 #P ROHF/Gen 5d 7f SCF=(maxcycles=500) Integral(Grid=525302) MaxDisk=50
 00GB Pop=Full Pseudo=Read Guess=Read
 ----------------------------------------------------------------------

 -
 H
 -
 Symbolic Z-matrix:
 Charge =  0 Multiplicity = 2

                         Standard orientation:
 ---------------------------------------------------------------------
 Center     Atomic      Atomic             Coordinates (Angstroms)
 Number     Number       Type             X           Y           Z
 ---------------------------------------------------------------------
      1          1           0        0.000000    0.000000    0.000000
 ---------------------------------------------------------------------

 SCF Done:  E(ROHF) = -0.499829865653     A.U. after    6 cycles

 The electronic state is 2-A1G.
 Alpha  occ. eigenvalues --   -0.12503
 Alpha virt. eigenvalues --    0.06100   0.21519   0.21519   0.21519   0.46686
 Alpha virt. eigenvalues --    0.81379   0.81379   0.81379   0.81379   0.81379
 Alpha virt. eigenvalues --    1.01234   1.01234   1.01234   2.15487   3.85600

 Mulliken charges and spin densities:
               1          2
     1  H    0.000000   1.000000
 Sum of Mulliken charges =   0.00000   1.00000

 Dipole moment (field-independent basis, Debye):
    X=              0.0000    Y=              0.0000    Z=              0.0000  Tot=              0.0000
 Quadrupole moment (field-independent basis, Debye-Ang):
   XX=             -1.3485   YY=             -1.3485   ZZ=             -1.3485
   XY=             -0.0000   XZ=             -0.0000   YZ=             -0.0000

 Normal termination of Gaussian 16 at Tue Jan 30 11:13:14 2018.
