 Gaussian 16, Revision A.03,
 Gaussian 16:  ES64L-G16RevA.03 25-Dec-2016

 ----------------------------------------------------------------------
 #P ROCCSD(T)=(maxcyc=150, Full, SaveAmplitudes, ReadAmplitudes)/Gen 5d
  7f SCF=(maxcycles=300) Integral(NoXCTest) MaxDisk=500GB Pop=Regular P
 seudo=Read Guess=Read
 ----------------------------------------------------------------------

 ---
 CrH
 ---
 Symbolic Z-matrix:
 Charge =  0 Multiplicity = 6

                         Standard orientation:
 ---------------------------------------------------------------------
 Center     Atomic      Atomic             Coordinates (Angstroms)
 Number     Number       Type             X           Y           Z
 ---------------------------------------------------------------------
      1         24           0        0.000000    0.000000    0.048000
      2          1           0        0.000000    0.000000   -1.152000
 ---------------------------------------------------------------------

 SCF Done:  E(ROHF) =  -86.2781118196     A.U. after   31 cycles
 E2 =    -0.5897322219D+00 EUMP2 =    -0.86867844041536D+02
 CCSD(T)
 CCSD(T)= -0.86890741504D+02

 The electronic state is 6-SG.
 Alpha  occ. eigenvalues --   -3.77582  -2.49234  -2.49234  -2.47713  -0.47403
 Alpha  occ. eigenvalues --   -0.42708  -0.42708  -0.40063  -0.40063  -0.25998
 Alpha virt. eigenvalues --    0.01593   0.01593   0.01863   0.02164   0.04661
 Alpha virt. eigenvalues --    0.05391   0.05391   0.05492   0.05492   0.05644
 Alpha virt. eigenvalues --    0.05644   0.06213   0.09347   0.12976   0.17010

 Mulliken charges and spin densities:
               1          2
     1  Cr   0.471665   5.002723
     2  H   -0.471665  -0.002723
 Sum of Mulliken charges =  -0.00000   5.00000

 Dipole moment (field-independent basis, Debye):
    X=              0.0000    Y=              0.0000    Z=              1.6123  Tot=              1.6123
 Quadrupole moment (field-independent basis, Debye-Ang):
   XX=            -16.9586   YY=            -16.9586   ZZ=            -19.2602
   XY=              0.0000   XZ=              0.0000   YZ=              0.0000

 \\#P ROCCSD(T)=(maxcyc=150, Full, SaveAmplitudes, ReadAmplitudes)/Gen
 81118\PMP2-0=-86.867844\CCSD=-86.8704491\CCSD(T)=-86.8907415\RMSD=1.15
 Normal termination of Gaussian 16 at Sun Feb 25 22:39:44 2018.
