 Gaussian 16, Revision A.03,
 Gaussian 16:  ES64L-G16RevA.03 25-Dec-2016

 ----------------------------------------------------------------------
 #P ROCCSD(T)=(maxcyc=150, Full, SaveAmplitudes, ReadAmplitudes)/Gen 5d
  7f SCF=(maxcycles=300) Integral(NoXCTest) MaxDisk=500GB Pop=Regular P
 seudo=Read Guess=Read
 ----------------------------------------------------------------------

 ---
 TiO
 ---
 Symbolic Z-matrix:
 Charge =  0 Multiplicity = 3

                         Standard orientation:
 ---------------------------------------------------------------------
 Center     Atomic      Atomic             Coordinates (Angstroms)
 Number     Number       Type             X           Y           Z
 ---------------------------------------------------------------------
      1         22           0        0.000000    0.000000    0.453333
      2          8           0        0.000000    0.000000   -1.246667
 ---------------------------------------------------------------------

 SCF Done:  E(ROHF) =  -73.5270111533     A.U. after   20 cycles
 E2 =    -0.7781793097D+00 EUMP2 =    -0.74305190463036D+02
 CCSD(T)
 CCSD(T)= -0.74335282239D+02

 Unable to determine electronic state:  an orbital has unidentified symmetry.
 Alpha  occ. eigenvalues --   -3.06544  -1.93155  -1.93155  -1.90181  -1.15352
 Alpha  occ. eigenvalues --   -0.48419  -0.44976  -0.41975  -0.41975  -0.27718
 Alpha virt. eigenvalues --   -0.00013  -0.00013   0.01084   0.02277   0.03389
 Alpha virt. eigenvalues --    0.03389   0.03651   0.03739   0.04153   0.04244
 Alpha virt. eigenvalues --    0.04244   0.04714   0.08351   0.10142   0.11444

 Mulliken charges and spin densities:
               1          2
     1  Ti   1.027549   1.972230
     2  O   -1.027549   0.027770
 Sum of Mulliken charges =  -0.00000   2.00000

 Dipole moment (field-independent basis, Debye):
    X=              0.0000    Y=              0.0000    Z=              5.2173  Tot=              5.2173
 Quadrupole moment (field-independent basis, Debye-Ang):
   XX=            -21.4449   YY=            -21.4449   ZZ=            -29.4944
   XY=              0.0000   XZ=              0.0000   YZ=              0.0000

 \\#P ROCCSD(T)=(maxcyc=150, Full, SaveAmplitudes, ReadAmplitudes)/Gen
 -0=-74.3051905\CCSD=-74.2852597\CCSD(T)=-74.3352822\RMSD=1.176e-09\PG=
 Normal termination of Gaussian 16 at Tue Mar 13 02:35:09 2018.
