 Gaussian 16, Revision A.03,
 Gaussian 16:  ES64L-G16RevA.03 25-Dec-2016

 ----------------------------------------------------------------------
 #P ROCCSD(T)=(maxcyc=150, Full)/Gen 5d 7f SCF=(maxcycles=300) Integral
 (NoXCTest) MaxDisk=500GB Pop=Regular Pseudo=Read Guess=Read
 ----------------------------------------------------------------------

 ---
 ScH
 ---
 Symbolic Z-matrix:
 Charge =  0 Multiplicity = 1

                         Standard orientation:
 ---------------------------------------------------------------------
 Center     Atomic      Atomic             Coordinates (Angstroms)
 Number     Number       Type             X           Y           Z
 ---------------------------------------------------------------------
      1         21           0        0.000000    0.000000    0.095455
      2          1           0        0.000000    0.000000   -2.004545
 ---------------------------------------------------------------------

 SCF Done:  E(ROHF) =  -46.6483537530     A.U. after   10 cycles
 E2 =    -0.4264130262D+00 EUMP2 =    -0.47074766779246D+02
 CCSD(T)
 CCSD(T)= -0.47120222944D+02

 The electronic state is 1-SG.
 Alpha  occ. eigenvalues --   -2.71365  -1.68938  -1.68938  -1.68729  -0.36809
 Alpha  occ. eigenvalues --   -0.24281
 Alpha virt. eigenvalues --    0.00903   0.00903   0.01089   0.01837   0.02562
 Alpha virt. eigenvalues --    0.02562   0.02684   0.02684   0.02753   0.03450
 Alpha virt. eigenvalues --    0.03772   0.03772   0.06183   0.06183   0.06958

 Mulliken charges and spin densities:
               1          2
     1  Sc   0.361189   0.000000
     2  H   -0.361189   0.000000
 Sum of Mulliken charges =  -0.00000   0.00000

 Dipole moment (field-independent basis, Debye):
    X=              0.0000    Y=              0.0000    Z=              2.5870  Tot=              2.5870
 Quadrupole moment (field-independent basis, Debye-Ang):
   XX=            -22.8832   YY=            -22.8832   ZZ=            -29.1782
   XY=              0.0000   XZ=              0.0000   YZ=              0.0000

 P ROCCSD(T)=(maxcyc=150, Full)/Gen 5d 7f SCF=(maxcycles=300) Integral(
 747668\MP4SDQ=-47.0986888\CCSD=-47.099395\CCSD(T)=-47.1202229\RMSD=2.6
 Normal termination of Gaussian 16 at Tue Feb 13 11:13:42 2018.
