 Gaussian 16, Revision A.03,
 Gaussian 16:  ES64L-G16RevA.03 25-Dec-2016

 ----------------------------------------------------------------------
 #P ROCCSD(T)=(maxcyc=150, Full, SaveAmplitudes, ReadAmplitudes)/Gen 5d
  7f SCF=(maxcycles=300) Integral(NoXCTest) MaxDisk=500GB Pop=Regular P
 seudo=Read Guess=Read
 ----------------------------------------------------------------------

 ---
 ScO
 ---
 Symbolic Z-matrix:
 Charge =  0 Multiplicity = 2

                         Standard orientation:
 ---------------------------------------------------------------------
 Center     Atomic      Atomic             Coordinates (Angstroms)
 Number     Number       Type             X           Y           Z
 ---------------------------------------------------------------------
      1         21           0        0.000000    0.000000    0.331034
      2          8           0        0.000000    0.000000   -0.868966
 ---------------------------------------------------------------------

 SCF Done:  E(ROHF) =  -61.5597386979     A.U. after   14 cycles
 E2 =    -0.6823207028D+00 EUMP2 =    -0.62242059400708D+02
 CCSD(T)
 CCSD(T)= -0.62270295941D+02

 The electronic state is 2-SG.
 Alpha  occ. eigenvalues --   -2.61824  -1.82402  -1.52428  -1.52428  -1.04474
 Alpha  occ. eigenvalues --   -0.63900  -0.63900  -0.47766  -0.17838
 Alpha virt. eigenvalues --    0.00987   0.00987   0.01642   0.02540   0.02824
 Alpha virt. eigenvalues --    0.02824   0.02859   0.02859   0.02885   0.04340
 Alpha virt. eigenvalues --    0.04340   0.06510   0.08144   0.08144   0.08381

 Mulliken charges and spin densities:
               1          2
     1  Sc   0.856369   1.034998
     2  O   -0.856369  -0.034998
 Sum of Mulliken charges =  -0.00000   1.00000

 Dipole moment (field-independent basis, Debye):
    X=              0.0000    Y=              0.0000    Z=             -1.2376  Tot=              1.2376
 Quadrupole moment (field-independent basis, Debye-Ang):
   XX=            -23.5740   YY=            -23.5740   ZZ=            -29.0515
   XY=              0.0000   XZ=              0.0000   YZ=              0.0000

 \\#P ROCCSD(T)=(maxcyc=150, Full, SaveAmplitudes, ReadAmplitudes)/Gen
 597387\PMP2-0=-62.2420594\CCSD=-62.2415665\CCSD(T)=-62.2702959\RMSD=2.
 Normal termination of Gaussian 16 at Tue Feb 20 22:16:38 2018.
