 Gaussian 16, Revision A.03,
 Gaussian 16:  ES64L-G16RevA.03 25-Dec-2016

 ----------------------------------------------------------------------
 #P ROCCSD(T)=(maxcyc=150, Window=(7,0), SaveAmplitudes, ReadAmplitudes
 )/Gen 5d 7f SCF=(maxcycles=300) Integral(NoXCTest, DKHSO) MaxDisk=500G
 B Pop=Regular Guess=Read
 ----------------------------------------------------------------------

 ---
 CrO
 ---
 Symbolic Z-matrix:
 Charge =  0 Multiplicity = 5

                         Standard orientation:
 ---------------------------------------------------------------------
 Center     Atomic      Atomic             Coordinates (Angstroms)
 Number     Number       Type             X           Y           Z
 ---------------------------------------------------------------------
      1         24           0        0.000000    0.000000    0.400000
      2          8           0        0.000000    0.000000   -1.200000
 ---------------------------------------------------------------------

 SCF Done:  E(ROHF) =  -1124.50750333     A.U. after   24 cycles
 E2 =    -0.8990949801D+00 EUMP2 =    -0.11254065983144D+04
 CCSD(T)
 CCSD(T)= -0.11254250989D+04

 Unable to determine electronic state:  an orbital has unidentified symmetry.
 Alpha  occ. eigenvalues -- -222.28865 -26.88628 -22.52069 -22.51962 -22.51368
 Alpha  occ. eigenvalues --  -20.49737  -3.71832  -2.48052  -2.44701  -2.41764
 Alpha  occ. eigenvalues --   -1.16607  -0.61986  -0.58451  -0.57216  -0.47911
 Alpha  occ. eigenvalues --   -0.43306  -0.38808  -0.31761
 Alpha virt. eigenvalues --   -0.00056   0.00490   0.01523   0.02661   0.03592
 Alpha virt. eigenvalues --    0.04031   0.05307   0.05308   0.05408   0.05808
 Alpha virt. eigenvalues --    0.05849   0.06276   0.10749   0.12587   0.12768

 Mulliken charges and spin densities:
               1          2
     1  Cr   1.035101   3.900241
     2  O   -1.035101   0.099759
 Sum of Mulliken charges =  -0.00000   4.00000

 Dipole moment (field-independent basis, Debye):
    X=             -0.0000    Y=              0.0000    Z=              5.9825  Tot=              5.9825
 Quadrupole moment (field-independent basis, Debye-Ang):
   XX=            -21.0701   YY=            -20.0028   ZZ=            -24.5943
   XY=              0.0000   XZ=             -0.0000   YZ=              0.0000

 1\1\GINC-C484-073\SP\ROCCSD(T)-RW\Gen\Cr1O1(5)\AANNABE\14-Mar-2018\0\\
 #P ROCCSD(T)=(maxcyc=150, Window=(7,0), SaveAmplitudes, ReadAmplitudes
 )/Gen 5d 7f SCF=(maxcycles=300) Integral(NoXCTest, DKHSO) MaxDisk=500G
 B Pop=Regular Guess=Read\\CrO\\0,5\Cr,0,0.,0.,0.\O,0,0.,0.,1.6\\Versio
 n=ES64L-G16RevA.03\HF=-1124.5075033\MP2=-1125.4065983\PUHF=-1124.50750
 33\PMP2-0=-1125.4065983\CCSD=-1125.3743186\CCSD(T)=-1125.4250989\RMSD=
 9.940e-09\PG=C*V [C*(O1Cr1)]\\@

 Normal termination of Gaussian 16 at Wed Mar 14 15:24:50 2018.
