 Gaussian 16, Revision A.03,
 Gaussian 16:  ES64L-G16RevA.03 25-Dec-2016

 ----------------------------------------------------------------------
 #P ROCCSD(T)=(maxcyc=100, Full)/Gen SCF=(maxcycle=400, symm) Pseudo=Re
 ad Integral(NoXCTest) Pop=Regular MaxDisk=500GB Guess=Permute IOp(5/15
 =2)
 ----------------------------------------------------------------------

 ---
 FeH
 ---
 Symbolic Z-matrix:
 Charge =  0 Multiplicity = 4

                         Standard orientation:
 ---------------------------------------------------------------------
 Center     Atomic      Atomic             Coordinates (Angstroms)
 Number     Number       Type             X           Y           Z
 ---------------------------------------------------------------------
      1         26           0        0.000000    0.000000    0.044444
      2          1           0        0.000000    0.000000   -1.155556
 ---------------------------------------------------------------------

 SCF Done:  E(ROHF) =  -123.454235790     A.U. after   36 cycles
 E2 =    -0.8207538940D+00 EUMP2 =    -0.12427498968352D+03
 CCSD(T)
 CCSD(T)= -0.12426753575D+03

 Unable to determine electronic state:  partially filled degenerate orbitals.
 Alpha  occ. eigenvalues --   -4.43217  -2.86568  -2.84189  -2.84189  -0.55457
 Alpha  occ. eigenvalues --   -0.55457  -0.55025  -0.52935  -0.48037  -0.30474
 Alpha virt. eigenvalues --    0.00386   0.02191   0.02191   0.02329   0.03944
 Alpha virt. eigenvalues --    0.05926   0.06258   0.06258   0.06284   0.06293
 Alpha virt. eigenvalues --    0.07132   0.07132   0.08114   0.12932   0.17435

 Mulliken charges and spin densities:
               1          2
     1  Fe   0.339676   2.988993
     2  H   -0.339676   0.011007
 Sum of Mulliken charges =  -0.00000   3.00000

 Dipole moment (field-independent basis, Debye):
    X=              0.0000    Y=              0.0000    Z=              3.0514  Tot=              3.0514
 Quadrupole moment (field-independent basis, Debye-Ang):
   XX=            -16.7062   YY=            -16.7062   ZZ=            -15.9374
   XY=              0.0000   XZ=              0.0000   YZ=              0.0000

 \\#P ROCCSD(T)=(maxcyc=100, Full)/Gen SCF=(maxcycle=400, symm) Pseudo=
 2367759\CCSD(T)=-124.2675358\RMSD=8.695e-09\PG=C*V [C*(H1Fe1)]\\@
 Normal termination of Gaussian 16 at Mon Feb 12 22:37:50 2018.
