 Gaussian 16, Revision A.03,
 Gaussian 16:  ES64L-G16RevA.03 25-Dec-2016

 ----------------------------------------------------------------------
 #P ROCCSD(T)=(maxcyc=100, Full)/Gen SCF=(maxcycle=400, symm) Pseudo=Re
 ad Integral(NoXCTest) Pop=Regular MaxDisk=500GB Guess=Permute IOp(5/15
 =2)
 ----------------------------------------------------------------------

 ---
 FeH
 ---
 Symbolic Z-matrix:
 Charge =  0 Multiplicity = 4

                         Standard orientation:
 ---------------------------------------------------------------------
 Center     Atomic      Atomic             Coordinates (Angstroms)
 Number     Number       Type             X           Y           Z
 ---------------------------------------------------------------------
      1         26           0        0.000000    0.000000    0.044444
      2          1           0        0.000000    0.000000   -1.155556
 ---------------------------------------------------------------------

 SCF Done:  E(ROHF) =  -123.452837796     A.U. after   23 cycles
 E2 =    -0.7713698951D+00 EUMP2 =    -0.12422420769129D+03
 CCSD(T)
 CCSD(T)= -0.12422053616D+03

 Unable to determine electronic state:  an orbital has unidentified symmetry.
 Alpha  occ. eigenvalues --   -4.43269  -2.86589  -2.84207  -2.84207  -0.55457
 Alpha  occ. eigenvalues --   -0.55457  -0.55017  -0.52934  -0.48030  -0.30475
 Alpha virt. eigenvalues --    0.00479   0.02460   0.02460   0.02853   0.04752
 Alpha virt. eigenvalues --    0.08237   0.08237   0.09562   0.10249   0.10249
 Alpha virt. eigenvalues --    0.10333   0.10367   0.10535   0.16488   0.25147

 Mulliken charges and spin densities:
               1          2
     1  Fe   0.312947   2.990508
     2  H   -0.312947   0.009492
 Sum of Mulliken charges =  -0.00000   3.00000

 Dipole moment (field-independent basis, Debye):
    X=              0.0000    Y=              0.0000    Z=              3.0518  Tot=              3.0518
 Quadrupole moment (field-independent basis, Debye-Ang):
   XX=            -16.7171   YY=            -16.7171   ZZ=            -15.9328
   XY=              0.0000   XZ=              0.0000   YZ=              0.0000

 \\#P ROCCSD(T)=(maxcyc=100, Full)/Gen SCF=(maxcycle=400, symm) Pseudo=
 1915557\CCSD(T)=-124.2205362\RMSD=3.726e-09\PG=C*V [C*(H1Fe1)]\\@
 Normal termination of Gaussian 16 at Mon Feb 12 20:22:32 2018.
