 Gaussian 16, Revision A.03,
 Gaussian 16:  ES64L-G16RevA.03 25-Dec-2016

 ----------------------------------------------------------------------
 #P ROCCSD(T)=(maxcyc=100, Full)/Gen SCF=(maxcycle=400, symm) Pseudo=Re
 ad Integral(NoXCTest) Pop=Regular MaxDisk=500GB Guess=Permute IOp(5/15
 =2)
 ----------------------------------------------------------------------

 ---
 FeH
 ---
 Symbolic Z-matrix:
 Charge =  0 Multiplicity = 4

                         Standard orientation:
 ---------------------------------------------------------------------
 Center     Atomic      Atomic             Coordinates (Angstroms)
 Number     Number       Type             X           Y           Z
 ---------------------------------------------------------------------
      1         26           0        0.000000    0.000000    0.044444
      2          1           0        0.000000    0.000000   -1.155556
 ---------------------------------------------------------------------

 SCF Done:  E(ROHF) =  -123.448969516     A.U. after   31 cycles
 E2 =    -0.8066349457D+00 EUMP2 =    -0.12425560446167D+03
 CCSD(T)
 CCSD(T)= -0.12425009654D+03

 Unable to determine electronic state:  partially filled degenerate orbitals.
 Alpha  occ. eigenvalues --   -4.43114  -2.86611  -2.84231  -2.84231  -0.55456
 Alpha  occ. eigenvalues --   -0.55456  -0.55024  -0.52934  -0.48032  -0.30472
 Alpha virt. eigenvalues --    0.00444   0.02253   0.02253   0.02601   0.04606
 Alpha virt. eigenvalues --    0.06261   0.06802   0.06802   0.06860   0.06871
 Alpha virt. eigenvalues --    0.07456   0.07456   0.09236   0.17186   0.18173

 Mulliken charges and spin densities:
               1          2
     1  Fe   0.441146   2.991876
     2  H   -0.441146   0.008124
 Sum of Mulliken charges =  -0.00000   3.00000

 Dipole moment (field-independent basis, Debye):
    X=              0.0000    Y=              0.0000    Z=              3.0525  Tot=              3.0525
 Quadrupole moment (field-independent basis, Debye-Ang):
   XX=            -16.7092   YY=            -16.7092   ZZ=            -15.9390
   XY=              0.0000   XZ=              0.0000   YZ=              0.0000

 \\#P ROCCSD(T)=(maxcyc=100, Full)/Gen SCF=(maxcycle=400, symm) Pseudo=
 2197898\CCSD(T)=-124.2500965\RMSD=7.191e-09\PG=C*V [C*(H1Fe1)]\\@
 Normal termination of Gaussian 16 at Mon Feb 12 20:58:29 2018.
