 Gaussian 16, Revision A.03,
 Gaussian 16:  ES64L-G16RevA.03 25-Dec-2016

 ----------------------------------------------------------------------
 #P ROCCSD(T)=(maxcyc=150, Full, SaveAmplitudes, ReadAmplitudes)/Gen 5d
  7f SCF=(maxcycles=300) Integral(NoXCTest) MaxDisk=500GB Pop=Regular P
 seudo=Read Guess=Read
 ----------------------------------------------------------------------

 ---
 MnO
 ---
 Symbolic Z-matrix:
 Charge =  0 Multiplicity = 6

                         Standard orientation:
 ---------------------------------------------------------------------
 Center     Atomic      Atomic             Coordinates (Angstroms)
 Number     Number       Type             X           Y           Z
 ---------------------------------------------------------------------
      1         25           0        0.000000    0.000000    0.412121
      2          8           0        0.000000    0.000000   -1.287879
 ---------------------------------------------------------------------

 SCF Done:  E(ROHF) =  -119.137853977     A.U. after   24 cycles
 E2 =    -0.9344237903D+00 EUMP2 =    -0.12007227776705D+03
 CCSD(T)
 CCSD(T)= -0.12010036913D+03

 The electronic state is 6-SG.
 Alpha  occ. eigenvalues --   -4.23047  -2.78733  -2.78733  -2.78065  -1.11153
 Alpha  occ. eigenvalues --   -0.64479  -0.64479  -0.63704  -0.63704  -0.59559
 Alpha  occ. eigenvalues --   -0.33897  -0.33897  -0.33846
 Alpha virt. eigenvalues --   -0.04605   0.01332   0.01332   0.01598   0.03379
 Alpha virt. eigenvalues --    0.05758   0.05758   0.05864   0.05864   0.06363
 Alpha virt. eigenvalues --    0.07070   0.07070   0.11376   0.12683   0.17843

 Mulliken charges and spin densities:
               1          2
     1  Mn   1.172849   4.907777
     2  O   -1.172849   0.092223
 Sum of Mulliken charges =  -0.00000   5.00000

 Dipole moment (field-independent basis, Debye):
    X=              0.0000    Y=              0.0000    Z=              9.1281  Tot=              9.1281
 Quadrupole moment (field-independent basis, Debye-Ang):
   XX=            -18.8912   YY=            -18.8912   ZZ=            -23.8841
   XY=              0.0000   XZ=              0.0000   YZ=              0.0000

 \\#P ROCCSD(T)=(maxcyc=150, Full, SaveAmplitudes, ReadAmplitudes)/Gen
 .137854\PMP2-0=-120.0722778\CCSD=-120.0570574\CCSD(T)=-120.1003691\RMS
 Normal termination of Gaussian 16 at Wed Mar 14 06:49:01 2018.
