 Gaussian 16, Revision A.03,
 Gaussian 16:  ES64L-G16RevA.03 25-Dec-2016

 ----------------------------------------------------------------------
 #P ROCCSD(T)=(MaxCyc=150, Full)/Gen SCF=(maxcycle=400, vshift=200) Pse
 udo=Read Integral(NoXCTest) Pop=Regular MaxDisk=500GB Guess=Read IOp(5
 /15=2)
 ----------------------------------------------------------------------

 ---
 ZnH
 ---
 Symbolic Z-matrix:
 Charge =  0 Multiplicity = 2

                         Standard orientation:
 ---------------------------------------------------------------------
 Center     Atomic      Atomic             Coordinates (Angstroms)
 Number     Number       Type             X           Y           Z
 ---------------------------------------------------------------------
      1         30           0        0.000000    0.000000    0.038710
      2          1           0        0.000000    0.000000   -1.161290
 ---------------------------------------------------------------------

 SCF Done:  E(ROHF) =  -226.092673305     A.U. after   33 cycles
 E2 =    -0.1040026132D+01 EUMP2 =    -0.22713269943715D+03
 CCSD(T)
 CCSD(T)= -0.22708061119D+03

 The electronic state is 2-SG.
 Alpha  occ. eigenvalues --   -5.89614  -4.01689  -4.00919  -4.00919  -0.83434
 Alpha  occ. eigenvalues --   -0.80720  -0.80720  -0.80654  -0.80654  -0.48976
 Alpha  occ. eigenvalues --   -0.26682
 Alpha virt. eigenvalues --    0.02159   0.02159   0.02580   0.04151   0.07758
 Alpha virt. eigenvalues --    0.07758   0.08960   0.16099   0.19218   0.24452
 Alpha virt. eigenvalues --    0.24452   0.25171   0.25171   0.26912   0.28400

 Mulliken charges and spin densities:
               1          2
     1  Zn   0.296165   0.958477
     2  H   -0.296165   0.041523
 Sum of Mulliken charges =  -0.00000   1.00000

 Dipole moment (field-independent basis, Debye):
    X=              0.0000    Y=              0.0000    Z=             -0.2566  Tot=              0.2566
 Quadrupole moment (field-independent basis, Debye-Ang):
   XX=            -14.4146   YY=            -14.4146   ZZ=            -20.4679
   XY=              0.0000   XZ=              0.0000   YZ=              0.0000

 \\#P ROCCSD(T)=(MaxCyc=150, Full)/Gen SCF=(maxcycle=400, vshift=200) P
 Normal termination of Gaussian 16 at Sat Apr 21 10:23:37 2018.
