 Gaussian 16, Revision A.03,
 Gaussian 16:  ES64L-G16RevA.03 25-Dec-2016

 ----------------------------------------------------------------------
 #P ROCCSD(T)=(MaxCyc=150, Full)/Gen SCF=(maxcycle=400, vshift=200) Pse
 udo=Read Integral(NoXCTest) Pop=Regular MaxDisk=500GB Guess=Read IOp(5
 /15=2)
 ----------------------------------------------------------------------

 ---
 ZnH
 ---
 Symbolic Z-matrix:
 Charge =  0 Multiplicity = 2

                         Standard orientation:
 ---------------------------------------------------------------------
 Center     Atomic      Atomic             Coordinates (Angstroms)
 Number     Number       Type             X           Y           Z
 ---------------------------------------------------------------------
      1         30           0        0.000000    0.000000    0.038710
      2          1           0        0.000000    0.000000   -1.161290
 ---------------------------------------------------------------------

 SCF Done:  E(ROHF) =  -226.093884071     A.U. after   23 cycles
 E2 =    -0.1121530941D+01 EUMP2 =    -0.22721541501169D+03
 CCSD(T)
 CCSD(T)= -0.22716043674D+03

 The electronic state is 2-SG.
 Alpha  occ. eigenvalues --   -5.89604  -4.01676  -4.00903  -4.00903  -0.83430
 Alpha  occ. eigenvalues --   -0.80717  -0.80717  -0.80648  -0.80648  -0.48974
 Alpha  occ. eigenvalues --   -0.26684
 Alpha virt. eigenvalues --    0.01969   0.01969   0.02107   0.03393   0.06387
 Alpha virt. eigenvalues --    0.06387   0.06966   0.11892   0.13988   0.15315
 Alpha virt. eigenvalues --    0.15315   0.15550   0.15550   0.19204   0.20421

 Mulliken charges and spin densities:
               1          2
     1  Zn   0.319141   0.949749
     2  H   -0.319141   0.050251
 Sum of Mulliken charges =  -0.00000   1.00000

 Dipole moment (field-independent basis, Debye):
    X=              0.0000    Y=              0.0000    Z=             -0.2584  Tot=              0.2584
 Quadrupole moment (field-independent basis, Debye-Ang):
   XX=            -14.4068   YY=            -14.4068   ZZ=            -20.4752
   XY=              0.0000   XZ=              0.0000   YZ=              0.0000

 \\#P ROCCSD(T)=(MaxCyc=150, Full)/Gen SCF=(maxcycle=400, vshift=200) P
 Normal termination of Gaussian 16 at Sun Apr 29 00:35:57 2018.
