 Gaussian 16, Revision A.03,
 Gaussian 16:  ES64L-G16RevA.03 25-Dec-2016

 ----------------------------------------------------------------------
 #P ROCCSD(T)=(MaxCyc=150, Full)/Gen SCF=(maxcycle=400, vshift=200) Pse
 udo=Read Integral(NoXCTest) Pop=Regular MaxDisk=500GB Guess=Read IOp(5
 /15=2)
 ----------------------------------------------------------------------

 ---
 ZnH
 ---
 Symbolic Z-matrix:
 Charge =  0 Multiplicity = 2

                         Standard orientation:
 ---------------------------------------------------------------------
 Center     Atomic      Atomic             Coordinates (Angstroms)
 Number     Number       Type             X           Y           Z
 ---------------------------------------------------------------------
      1         30           0        0.000000    0.000000    0.038710
      2          1           0        0.000000    0.000000   -1.161290
 ---------------------------------------------------------------------

 SCF Done:  E(ROHF) =  -226.093757235     A.U. after   21 cycles
 E2 =    -0.1094989312D+01 EUMP2 =    -0.22718874654701D+03
 CCSD(T)
 CCSD(T)= -0.22713575600D+03

 The electronic state is 2-SG.
 Alpha  occ. eigenvalues --   -5.89604  -4.01677  -4.00905  -4.00905  -0.83432
 Alpha  occ. eigenvalues --   -0.80717  -0.80717  -0.80649  -0.80649  -0.48973
 Alpha  occ. eigenvalues --   -0.26683
 Alpha virt. eigenvalues --    0.02033   0.02033   0.02407   0.03813   0.06811
 Alpha virt. eigenvalues --    0.06811   0.08035   0.14562   0.17758   0.17820
 Alpha virt. eigenvalues --    0.17820   0.18240   0.18240   0.21927   0.22947

 Mulliken charges and spin densities:
               1          2
     1  Zn   0.248432   0.943534
     2  H   -0.248432   0.056466
 Sum of Mulliken charges =  -0.00000   1.00000

 Dipole moment (field-independent basis, Debye):
    X=              0.0000    Y=              0.0000    Z=             -0.2579  Tot=              0.2579
 Quadrupole moment (field-independent basis, Debye-Ang):
   XX=            -14.4089   YY=            -14.4089   ZZ=            -20.4745
   XY=              0.0000   XZ=              0.0000   YZ=              0.0000

 \\#P ROCCSD(T)=(MaxCyc=150, Full)/Gen SCF=(maxcycle=400, vshift=200) P
 CCSD(T)=-227.135756\RMSD=7.325e-09\PG=C*V [C*(H1Zn1)]\\@
 Normal termination of Gaussian 16 at Sat Apr 21 11:25:16 2018.
