 Gaussian 16, Revision A.03,
 Gaussian 16:  ES64L-G16RevA.03 25-Dec-2016

 ----------------------------------------------------------------------
 #P ROCCSD(T)=(MaxCyc=150, Window=(7,0))/Gen SCF=(maxcycle=400) Integra
 l(DKHSO, NoXCTest) Pop=Regular MaxDisk=500GB Guess=Read IOp(5/15=2)
 ----------------------------------------------------------------------

 ---
 CuO
 ---
 Symbolic Z-matrix:
 Charge =  0 Multiplicity = 2

                         Standard orientation:
 ---------------------------------------------------------------------
 Center     Atomic      Atomic             Coordinates (Angstroms)
 Number     Number       Type             X           Y           Z
 ---------------------------------------------------------------------
      1         29           0        0.000000    0.000000    0.345946
      2          8           0        0.000000    0.000000   -1.254054
 ---------------------------------------------------------------------

 SCF Done:  E(ROHF) =  -1728.02811285     A.U. after   18 cycles
 E2 =    -0.1354798455D+01 EUMP2 =    -0.17293829113018D+04
 CCSD(T)
 CCSD(T)= -0.17292946745D+04

 Unable to determine electronic state:  an orbital has unidentified symmetry.
 Alpha  occ. eigenvalues -- -332.53421 -41.71480 -35.85552 -35.85332 -35.85228
 Alpha  occ. eigenvalues --  -20.54001  -5.21218  -3.42451  -3.41458  -3.41039
 Alpha  occ. eigenvalues --   -1.24591  -0.61035  -0.57578  -0.56591  -0.52945
 Alpha  occ. eigenvalues --   -0.52943  -0.47772  -0.42124  -0.39290
 Alpha virt. eigenvalues --   -0.00831   0.02616   0.02749   0.03593   0.04589
 Alpha virt. eigenvalues --    0.09093   0.09393   0.11915   0.13528   0.13537
 Alpha virt. eigenvalues --    0.14369   0.14406   0.14853   0.19132   0.21532

 Mulliken charges and spin densities:
               1          2
     1  Cu   0.726458   0.033277
     2  O   -0.726458   0.966723
 Sum of Mulliken charges =  -0.00000   1.00000

 Dipole moment (field-independent basis, Debye):
    X=              0.0000    Y=              0.0000    Z=              5.2338  Tot=              5.2338
 Quadrupole moment (field-independent basis, Debye-Ang):
   XX=            -17.6620   YY=            -16.1422   ZZ=            -19.7457
   XY=             -0.0000   XZ=              0.0000   YZ=              0.0000

 1\1\GINC-C501-063\SP\ROCCSD(T)-RW\Gen\Cu1O1(2)\GWANG18\26-Mar-2018\0\\
 #P ROCCSD(T)=(MaxCyc=150, Window=(7,0))/Gen SCF=(maxcycle=400) Integra
 l(DKHSO, NoXCTest) Pop=Regular MaxDisk=500GB Guess=Read IOp(5/15=2)\\C
 uO\\0,2\Cu,0,0.,0.,0.\O,0,0.,0.,1.6\\Version=ES64L-G16RevA.03\HF=-1728
 .0281128\MP2=-1729.3829113\MP3=-1729.1399158\PUHF=-1728.0281128\PMP2-0
 =-1729.3829113\MP4SDQ=-1729.3346365\CCSD=-1729.2443975\CCSD(T)=-1729.2
 946745\RMSD=7.971e-09\PG=C*V [C*(O1Cu1)]\\@

 Normal termination of Gaussian 16 at Mon Mar 26 07:06:49 2018.
