 Gaussian 16, Revision A.03,
 Gaussian 16:  ES64L-G16RevA.03 25-Dec-2016

 ----------------------------------------------------------------------
 #P ROCCSD(T)=(maxcyc=150, Full, SaveAmplitudes, ReadAmplitudes)/Gen 5d
  7f SCF=(maxcycles=300) Integral(NoXCTest) MaxDisk=500GB Pop=Regular P
 seudo=Read Guess=Read
 ----------------------------------------------------------------------

 ---
 ScO
 ---
 Symbolic Z-matrix:
 Charge =  0 Multiplicity = 2

                         Standard orientation:
 ---------------------------------------------------------------------
 Center     Atomic      Atomic             Coordinates (Angstroms)
 Number     Number       Type             X           Y           Z
 ---------------------------------------------------------------------
      1         21           0        0.000000    0.000000    0.413793
      2          8           0        0.000000    0.000000   -1.086207
 ---------------------------------------------------------------------

 SCF Done:  E(ROHF) =  -61.9459687372     A.U. after   17 cycles
 E2 =    -0.7068805312D+00 EUMP2 =    -0.62652849268375D+02
 CCSD(T)
 CCSD(T)= -0.62677828698D+02

 The electronic state is 2-SG.
 Alpha  occ. eigenvalues --   -2.61061  -1.68423  -1.57957  -1.57957  -1.11521
 Alpha  occ. eigenvalues --   -0.47945  -0.47945  -0.45016  -0.22555
 Alpha virt. eigenvalues --    0.00584   0.00584   0.01780   0.02094   0.02764
 Alpha virt. eigenvalues --    0.02764   0.02992   0.02992   0.03109   0.03654
 Alpha virt. eigenvalues --    0.03654   0.05727   0.07633   0.07633   0.09253

 Mulliken charges and spin densities:
               1          2
     1  Sc   1.200976   0.995547
     2  O   -1.200976   0.004453
 Sum of Mulliken charges =  -0.00000   1.00000

 Dipole moment (field-independent basis, Debye):
    X=              0.0000    Y=              0.0000    Z=              2.7488  Tot=              2.7488
 Quadrupole moment (field-independent basis, Debye-Ang):
   XX=            -22.0013   YY=            -22.0013   ZZ=            -31.0120
   XY=              0.0000   XZ=              0.0000   YZ=              0.0000

 \\#P ROCCSD(T)=(maxcyc=150, Full, SaveAmplitudes, ReadAmplitudes)/Gen
 459687\PMP2-0=-62.6528493\CCSD=-62.6408614\CCSD(T)=-62.6778287\RMSD=7.
 Normal termination of Gaussian 16 at Mon Mar  5 19:36:22 2018.
