 Gaussian 16, Revision A.03,
 Gaussian 16:  ES64L-G16RevA.03 25-Dec-2016

 ----------------------------------------------------------------------
 #P ROCCSD(T)=(maxcyc=150, Full)/Gen 5d 7f SCF=(maxcycles=300) Integral
 (NoXCTest) MaxDisk=500GB Pop=Regular Pseudo=Read
 ----------------------------------------------------------------------

 ---
 ScH
 ---
 Symbolic Z-matrix:
 Charge =  0 Multiplicity = 1

                         Standard orientation:
 ---------------------------------------------------------------------
 Center     Atomic      Atomic             Coordinates (Angstroms)
 Number     Number       Type             X           Y           Z
 ---------------------------------------------------------------------
      1         21           0        0.000000    0.000000    0.063636
      2          1           0        0.000000    0.000000   -1.336364
 ---------------------------------------------------------------------

 SCF Done:  E(ROHF) =  -46.6224571645     A.U. after   12 cycles
 E2 =    -0.4143290956D+00 EUMP2 =    -0.47036786260098D+02
 CCSD(T)
 CCSD(T)= -0.47078193096D+02

 The electronic state is 1-SG.
 Alpha  occ. eigenvalues --   -2.64106  -1.63711  -1.61953  -1.61953  -0.45264
 Alpha  occ. eigenvalues --   -0.21943
 Alpha virt. eigenvalues --    0.01322   0.01322   0.01607   0.02178   0.03495
 Alpha virt. eigenvalues --    0.03913   0.03913   0.03919   0.03919   0.04819
 Alpha virt. eigenvalues --    0.04819   0.05003   0.09284   0.09917   0.09917

 Mulliken charges and spin densities:
               1          2
     1  Sc   0.452400   0.000000
     2  H   -0.452400   0.000000
 Sum of Mulliken charges =  -0.00000   0.00000

 Dipole moment (field-independent basis, Debye):
    X=              0.0000    Y=              0.0000    Z=              0.6848  Tot=              0.6848
 Quadrupole moment (field-independent basis, Debye-Ang):
   XX=            -23.4723   YY=            -23.4723   ZZ=            -23.8293
   XY=              0.0000   XZ=              0.0000   YZ=              0.0000

 P ROCCSD(T)=(maxcyc=150, Full)/Gen 5d 7f SCF=(maxcycles=300) Integral(
 DQ=-47.0609954\CCSD=-47.0604009\CCSD(T)=-47.0781931\RMSD=4.288e-09\PG=
 Normal termination of Gaussian 16 at Mon Feb 12 21:42:19 2018.
