 Gaussian 16, Revision A.03,
 Gaussian 16:  ES64L-G16RevA.03 25-Dec-2016

 ----------------------------------------------------------------------
 #P ROCCSD(T)=(maxcyc=150, Full, SaveAmplitudes, ReadAmplitudes)/Gen 5d
  7f SCF=(maxcycles=300) Integral(NoXCTest) MaxDisk=500GB Pop=Regular P
 seudo=Read Guess=Read
 ----------------------------------------------------------------------

 ---
 ScO
 ---
 Symbolic Z-matrix:
 Charge =  0 Multiplicity = 2

                         Standard orientation:
 ---------------------------------------------------------------------
 Center     Atomic      Atomic             Coordinates (Angstroms)
 Number     Number       Type             X           Y           Z
 ---------------------------------------------------------------------
      1         21           0        0.000000    0.000000    0.386207
      2          8           0        0.000000    0.000000   -1.013793
 ---------------------------------------------------------------------

 SCF Done:  E(ROHF) =  -61.8006757626     A.U. after   16 cycles
 E2 =    -0.7009478844D+00 EUMP2 =    -0.62501623646996D+02
 CCSD(T)
 CCSD(T)= -0.62526077801D+02

 The electronic state is 2-SG.
 Alpha  occ. eigenvalues --   -2.58966  -1.72092  -1.55354  -1.55354  -1.09384
 Alpha  occ. eigenvalues --   -0.52630  -0.52630  -0.46217  -0.20943
 Alpha virt. eigenvalues --    0.00812   0.00812   0.02027   0.02045   0.02790
 Alpha virt. eigenvalues --    0.02790   0.02940   0.02940   0.02970   0.03940
 Alpha virt. eigenvalues --    0.03940   0.06237   0.07890   0.07890   0.08887

 Mulliken charges and spin densities:
               1          2
     1  Sc   1.139215   1.012621
     2  O   -1.139215  -0.012621
 Sum of Mulliken charges =  -0.00000   1.00000

 Dipole moment (field-independent basis, Debye):
    X=              0.0000    Y=              0.0000    Z=              1.4808  Tot=              1.4808
 Quadrupole moment (field-independent basis, Debye-Ang):
   XX=            -22.3667   YY=            -22.3667   ZZ=            -30.3192
   XY=              0.0000   XZ=              0.0000   YZ=              0.0000

 \\#P ROCCSD(T)=(maxcyc=150, Full, SaveAmplitudes, ReadAmplitudes)/Gen
 006758\PMP2-0=-62.5016236\CCSD=-62.4920202\CCSD(T)=-62.5260778\RMSD=1.
 Normal termination of Gaussian 16 at Wed Feb 21 00:54:39 2018.
