 Gaussian 16, Revision A.03,
 Gaussian 16:  ES64L-G16RevA.03 25-Dec-2016

 ----------------------------------------------------------------------
 #P ROCCSD(T)=(maxcyc=150, Full)/Gen 5d 7f SCF=(maxcycles=300, NoVarAcc
 , VShift=300) MaxDisk=100GB Pop=Regular Pseudo=Read Guess=Permute IOp(
 5/15=2)
 ----------------------------------------------------------------------

 --
 Cr
 --
 Symbolic Z-matrix:
 Charge =  0 Multiplicity = 7

                         Standard orientation:
 ---------------------------------------------------------------------
 Center     Atomic      Atomic             Coordinates (Angstroms)
 Number     Number       Type             X           Y           Z
 ---------------------------------------------------------------------
      1         24           0        0.000000    0.000000    0.000000
 ---------------------------------------------------------------------

 SCF Done:  E(ROHF) =  -86.2191211182     A.U. after   61 cycles
 E2 =    -0.5631974401D+00 EUMP2 =    -0.86782318558343D+02
 CCSD(T)
 CCSD(T)= -0.86790810020D+02

 The electronic state is 7-A1G.
 Alpha  occ. eigenvalues --   -3.59698  -2.33016  -2.33016  -2.33016  -0.36895
 Alpha  occ. eigenvalues --   -0.36895  -0.36895  -0.36895  -0.36895  -0.22573
 Alpha virt. eigenvalues --    0.01679   0.01679   0.01679   0.02265   0.05109
 Alpha virt. eigenvalues --    0.05109   0.05109   0.05109   0.05109   0.05699
 Alpha virt. eigenvalues --    0.05699   0.05699   0.11306   0.16234   0.16234

 Mulliken charges and spin densities:
               1          2
     1  Cr  -0.000000   6.000000
 Sum of Mulliken charges =  -0.00000   6.00000

 Dipole moment (field-independent basis, Debye):
    X=              0.0000    Y=              0.0000    Z=              0.0000  Tot=              0.0000
 Quadrupole moment (field-independent basis, Debye-Ang):
   XX=            -16.4644   YY=            -16.4644   ZZ=            -16.4644
   XY=              0.0000   XZ=             -0.0000   YZ=             -0.0000

 1\1\GINC-C455-094\SP\ROCCSD(T)-Full\Gen\Cr1(7)\AANNABE\12-Mar-2018\2\\
 #P ROCCSD(T)=(maxcyc=150, Full)/Gen 5d 7f SCF=(maxcycles=300, NoVarAcc
 , VShift=300) MaxDisk=100GB Pop=Regular Pseudo=Read Guess=Permute IOp(
 5/15=2)\\Cr\\0,7\Cr,0,0.,0.,0.\\1,2,3,4,10,5,6,7,8,9\\Version=ES64L-G1
 6RevA.03\State=7-A1G\HF=-86.2191211\MP2=-86.7823186\MP3=-86.7713534\PU
 HF=-86.2191211\PMP2-0=-86.7823186\MP4SDQ=-86.7742986\CCSD=-86.7733832\
 CCSD(T)=-86.79081\RMSD=6.429e-09\PG=OH [O(Cr1)]\\@

 Normal termination of Gaussian 16 at Mon Mar 12 18:18:11 2018.
