 Gaussian 16, Revision A.03,
 Gaussian 16:  ES64L-G16RevA.03 25-Dec-2016

 ----------------------------------------------------------------------
 #P ROCCSD(T)=(maxcyc=150, Full, SaveAmplitudes, ReadAmplitudes)/Gen 5d
  7f SCF=(maxcycles=300) Integral(NoXCTest) MaxDisk=500GB Pop=Regular P
 seudo=Read Guess=Read IOp(5/15=2)
 ----------------------------------------------------------------------

 ---
 MnO
 ---
 Symbolic Z-matrix:
 Charge =  0 Multiplicity = 6

                         Standard orientation:
 ---------------------------------------------------------------------
 Center     Atomic      Atomic             Coordinates (Angstroms)
 Number     Number       Type             X           Y           Z
 ---------------------------------------------------------------------
      1         25           0        0.000000    0.000000    0.363636
      2          8           0        0.000000    0.000000   -1.136364
 ---------------------------------------------------------------------

 SCF Done:  E(ROHF) =  -119.343515165     A.U. after   30 cycles
 E2 =    -0.9450006972D+00 EUMP2 =    -0.12028851586266D+03
 CCSD(T)
 CCSD(T)= -0.12030417549D+03

 The electronic state is 6-SG.
 Alpha  occ. eigenvalues --   -4.09391  -2.75511  -2.75511  -2.73167  -1.17851
 Alpha  occ. eigenvalues --   -0.67763  -0.67763  -0.63612  -0.63612  -0.53345
 Alpha  occ. eigenvalues --   -0.38758  -0.38758  -0.33598
 Alpha virt. eigenvalues --   -0.00692   0.01962   0.01962   0.03165   0.03845
 Alpha virt. eigenvalues --    0.06842   0.06842   0.08654   0.08654   0.08754
 Alpha virt. eigenvalues --    0.09471   0.09471   0.13176   0.14506   0.23028

 Mulliken charges and spin densities:
               1          2
     1  Mn   1.036710   4.833381
     2  O   -1.036710   0.166619
 Sum of Mulliken charges =  -0.00000   5.00000

 Dipole moment (field-independent basis, Debye):
    X=              0.0000    Y=              0.0000    Z=              6.2643  Tot=              6.2643
 Quadrupole moment (field-independent basis, Debye-Ang):
   XX=            -19.2569   YY=            -19.2569   ZZ=            -22.7190
   XY=              0.0000   XZ=              0.0000   YZ=              0.0000

 \\#P ROCCSD(T)=(maxcyc=150, Full, SaveAmplitudes, ReadAmplitudes)/Gen
 .2782869\CCSD=-120.2610907\CCSD(T)=-120.3041755\RMSD=7.312e-09\PG=C*V
 Normal termination of Gaussian 16 at Tue Mar 13 04:33:15 2018.
