 Gaussian 16, Revision A.03,
 Gaussian 16:  ES64L-G16RevA.03 25-Dec-2016

 ----------------------------------------------------------------------
 #P ROCCSD(T)=(maxcyc=150, Full, SaveAmplitudes, ReadAmplitudes)/Gen 5d
  7f SCF=(maxcycles=300) Integral(NoXCTest) MaxDisk=500GB Pop=Regular P
 seudo=Read Guess=Read
 ----------------------------------------------------------------------

 ---
 ScO
 ---
 Symbolic Z-matrix:
 Charge =  0 Multiplicity = 2

                         Standard orientation:
 ---------------------------------------------------------------------
 Center     Atomic      Atomic             Coordinates (Angstroms)
 Number     Number       Type             X           Y           Z
 ---------------------------------------------------------------------
      1         21           0        0.000000    0.000000    0.551724
      2          8           0        0.000000    0.000000   -1.448276
 ---------------------------------------------------------------------

 SCF Done:  E(ROHF) =  -61.7649373686     A.U. after   16 cycles
 E2 =    -0.7237139370D+00 EUMP2 =    -0.62488651305616D+02
 CCSD(T)
 CCSD(T)= -0.62519227981D+02

 The electronic state is 2-SG.
 Alpha  occ. eigenvalues --   -2.73747  -1.70902  -1.70902  -1.70376  -1.08946
 Alpha  occ. eigenvalues --   -0.38965  -0.34807  -0.34807  -0.28285
 Alpha virt. eigenvalues --   -0.01333  -0.01333   0.00484   0.01624   0.02380
 Alpha virt. eigenvalues --    0.02380   0.02515   0.02515   0.03043   0.03301
 Alpha virt. eigenvalues --    0.03301   0.04044   0.04365   0.04365   0.08646

 Mulliken charges and spin densities:
               1          2
     1  Sc   1.206075   0.982288
     2  O   -1.206075   0.017712
 Sum of Mulliken charges =  -0.00000   1.00000

 Dipole moment (field-independent basis, Debye):
    X=              0.0000    Y=              0.0000    Z=              7.4472  Tot=              7.4472
 Quadrupole moment (field-independent basis, Debye-Ang):
   XX=            -22.1711   YY=            -22.1711   ZZ=            -34.9402
   XY=              0.0000   XZ=              0.0000   YZ=              0.0000

 \\#P ROCCSD(T)=(maxcyc=150, Full, SaveAmplitudes, ReadAmplitudes)/Gen
 49374\PMP2-0=-62.4886513\CCSD=-62.4659886\CCSD(T)=-62.519228\RMSD=4.82
 Normal termination of Gaussian 16 at Wed Feb 21 09:21:16 2018.
