 Gaussian 16, Revision A.03,
 Gaussian 16:  ES64L-G16RevA.03 25-Dec-2016

 ----------------------------------------------------------------------
 #P ROCCSD(T)=(maxcyc=150, Full, SaveAmplitudes, ReadAmplitudes)/Gen 5d
  7f SCF=(maxcycles=300) Integral(NoXCTest) MaxDisk=500GB Pop=Regular P
 seudo=Read Guess=Read
 ----------------------------------------------------------------------

 ---
 MnO
 ---
 Symbolic Z-matrix:
 Charge =  0 Multiplicity = 6

                         Standard orientation:
 ---------------------------------------------------------------------
 Center     Atomic      Atomic             Coordinates (Angstroms)
 Number     Number       Type             X           Y           Z
 ---------------------------------------------------------------------
      1         25           0        0.000000    0.000000    0.387879
      2          8           0        0.000000    0.000000   -1.212121
 ---------------------------------------------------------------------

 SCF Done:  E(ROHF) =  -119.367751376     A.U. after   24 cycles
 E2 =    -0.9669463615D+00 EUMP2 =    -0.12033469773786D+03
 CCSD(T)
 CCSD(T)= -0.12036075064D+03

 The electronic state is 6-SG.
 Alpha  occ. eigenvalues --   -4.07945  -2.74111  -2.74111  -2.73397  -1.12571
 Alpha  occ. eigenvalues --   -0.64183  -0.64183  -0.62410  -0.62410  -0.56925
 Alpha  occ. eigenvalues --   -0.34878  -0.34878  -0.34118
 Alpha virt. eigenvalues --   -0.03583   0.01526   0.01526   0.01933   0.03391
 Alpha virt. eigenvalues --    0.05820   0.05820   0.05974   0.05974   0.06301
 Alpha virt. eigenvalues --    0.07224   0.07224   0.11806   0.12784   0.17915

 Mulliken charges and spin densities:
               1          2
     1  Mn   1.205239   4.868750
     2  O   -1.205239   0.131250
 Sum of Mulliken charges =  -0.00000   5.00000

 Dipole moment (field-independent basis, Debye):
    X=              0.0000    Y=              0.0000    Z=              8.3699  Tot=              8.3699
 Quadrupole moment (field-independent basis, Debye-Ang):
   XX=            -18.7258   YY=            -18.7258   ZZ=            -22.8638
   XY=              0.0000   XZ=              0.0000   YZ=              0.0000

 \\#P ROCCSD(T)=(maxcyc=150, Full, SaveAmplitudes, ReadAmplitudes)/Gen
 9.3677514\PMP2-0=-120.3346977\CCSD=-120.3166193\CCSD(T)=-120.3607506\R
 Normal termination of Gaussian 16 at Tue Mar 13 14:10:26 2018.
