 Gaussian 16, Revision A.03,
 Gaussian 16:  ES64L-G16RevA.03 25-Dec-2016

 ----------------------------------------------------------------------
 #P ROCCSD(T)=(MaxCyc=150, FrzINGC)/Gen SCF=(maxcycle=400, vshift=200)
 Integral(DKHSO, NoXCTest) Pop=Regular MaxDisk=500GB Guess=Read IOp(5/1
 5=2)
 ----------------------------------------------------------------------

 ---
 ZnH
 ---
 Symbolic Z-matrix:
 Charge =  0 Multiplicity = 2

                         Standard orientation:
 ---------------------------------------------------------------------
 Center     Atomic      Atomic             Coordinates (Angstroms)
 Number     Number       Type             X           Y           Z
 ---------------------------------------------------------------------
      1         30           0        0.000000    0.000000    0.035484
      2          1           0        0.000000    0.000000   -1.064516
 ---------------------------------------------------------------------

 SCF Done:  E(ROHF) =  -1794.69098149     A.U. after   23 cycles
 E2 =    -0.1054710577D+01 EUMP2 =    -0.17957456920713D+04
 CCSD(T)
 CCSD(T)= -0.17956719910D+04

 The electronic state is 2-SG.
 Alpha  occ. eigenvalues -- -357.61035 -45.38576 -39.18841 -39.18685 -39.18685
 Alpha  occ. eigenvalues --   -5.85806  -3.94712  -3.93042  -3.93042  -0.86098
 Alpha  occ. eigenvalues --   -0.82106  -0.82106  -0.81599  -0.81599  -0.49241
 Alpha  occ. eigenvalues --   -0.26209
 Alpha virt. eigenvalues --    0.02168   0.02168   0.02479   0.04200   0.07767
 Alpha virt. eigenvalues --    0.07767   0.08970   0.16338   0.19241   0.24352
 Alpha virt. eigenvalues --    0.24352   0.25163   0.25163   0.27246   0.28042

 Mulliken charges and spin densities:
               1          2
     1  Zn   0.309420   0.957459
     2  H   -0.309420   0.042541
 Sum of Mulliken charges =  -0.00000   1.00000

 Dipole moment (field-independent basis, Debye):
    X=              0.0000    Y=              0.0000    Z=             -0.4617  Tot=              0.4617
 Quadrupole moment (field-independent basis, Debye-Ang):
   XX=            -14.6314   YY=            -14.6314   ZZ=            -20.6826
   XY=              0.0000   XZ=              0.0000   YZ=              0.0000

 \#P ROCCSD(T)=(MaxCyc=150, FrzINGC)/Gen SCF=(maxcycle=400, vshift=200)
 04\CCSD(T)=-1795.671991\RMSD=7.632e-09\PG=C*V [C*(H1Zn1)]\\@
 Normal termination of Gaussian 16 at Sun Apr 22 01:36:37 2018.
