 Gaussian 16, Revision A.03,
 Gaussian 16:  ES64L-G16RevA.03 25-Dec-2016

 ----------------------------------------------------------------------
 #P ROCCSD(T)=(MaxCyc=150, FrzINGC)/Gen SCF=(maxcycle=400, vshift=200)
 Integral(DKHSO, NoXCTest) Pop=Regular MaxDisk=500GB Guess=Read IOp(5/1
 5=2)
 ----------------------------------------------------------------------

 ---
 ZnH
 ---
 Symbolic Z-matrix:
 Charge =  0 Multiplicity = 2

                         Standard orientation:
 ---------------------------------------------------------------------
 Center     Atomic      Atomic             Coordinates (Angstroms)
 Number     Number       Type             X           Y           Z
 ---------------------------------------------------------------------
      1         30           0        0.000000    0.000000    0.035484
      2          1           0        0.000000    0.000000   -1.064516
 ---------------------------------------------------------------------

 SCF Done:  E(ROHF) =  -1794.69339191     A.U. after   24 cycles
 E2 =    -0.1107965759D+01 EUMP2 =    -0.17958013576719D+04
 CCSD(T)
 CCSD(T)= -0.17957268171D+04

 The electronic state is 2-SG.
 Alpha  occ. eigenvalues -- -357.61039 -45.38554 -39.18816 -39.18659 -39.18659
 Alpha  occ. eigenvalues --   -5.85792  -3.94699  -3.93026  -3.93026  -0.86099
 Alpha  occ. eigenvalues --   -0.82107  -0.82107  -0.81596  -0.81596  -0.49237
 Alpha  occ. eigenvalues --   -0.26210
 Alpha virt. eigenvalues --    0.02041   0.02041   0.02295   0.03866   0.06822
 Alpha virt. eigenvalues --    0.06822   0.08073   0.14770   0.17652   0.17740
 Alpha virt. eigenvalues --    0.17740   0.18240   0.18240   0.22112   0.22739

 Mulliken charges and spin densities:
               1          2
     1  Zn   0.225306   0.944428
     2  H   -0.225306   0.055572
 Sum of Mulliken charges =  -0.00000   1.00000

 Dipole moment (field-independent basis, Debye):
    X=              0.0000    Y=              0.0000    Z=             -0.4649  Tot=              0.4649
 Quadrupole moment (field-independent basis, Debye-Ang):
   XX=            -14.6244   YY=            -14.6244   ZZ=            -20.6939
   XY=             -0.0000   XZ=              0.0000   YZ=             -0.0000

 \#P ROCCSD(T)=(MaxCyc=150, FrzINGC)/Gen SCF=(maxcycle=400, vshift=200)
 6\CCSD(T)=-1795.7268171\RMSD=5.651e-09\PG=C*V [C*(H1Zn1)]\\@
 Normal termination of Gaussian 16 at Sun Apr 22 02:04:13 2018.
