 Gaussian 16, Revision A.03,
 Gaussian 16:  ES64L-G16RevA.03 25-Dec-2016

 ----------------------------------------------------------------------
 #P ROCCSD(T)=(maxcyc=150, Full, SaveAmplitudes, ReadAmplitudes)/Gen 5d
  7f SCF=(maxcycles=300) Integral(NoXCTest) MaxDisk=500GB Pop=Regular P
 seudo=Read Guess=Read IOp(5/15=2)
 ----------------------------------------------------------------------

 ---
 ScO
 ---
 Symbolic Z-matrix:
 Charge =  0 Multiplicity = 2

                         Standard orientation:
 ---------------------------------------------------------------------
 Center     Atomic      Atomic             Coordinates (Angstroms)
 Number     Number       Type             X           Y           Z
 ---------------------------------------------------------------------
      1         21           0        0.000000    0.000000    0.386207
      2          8           0        0.000000    0.000000   -1.013793
 ---------------------------------------------------------------------

 SCF Done:  E(ROHF) =  -61.7585601026     A.U. after   18 cycles
 E2 =    -0.6706070589D+00 EUMP2 =    -0.62429167161520D+02
 CCSD(T)
 CCSD(T)= -0.62456124523D+02

 The electronic state is 2-SG.
 Alpha  occ. eigenvalues --   -2.59029  -1.71993  -1.55388  -1.55388  -1.08692
 Alpha  occ. eigenvalues --   -0.52659  -0.52659  -0.46234  -0.20946
 Alpha virt. eigenvalues --    0.00846   0.00846   0.02202   0.02233   0.03749
 Alpha virt. eigenvalues --    0.03749   0.03837   0.03837   0.03990   0.04568
 Alpha virt. eigenvalues --    0.04568   0.07119   0.10383   0.10383   0.10962

 Mulliken charges and spin densities:
               1          2
     1  Sc   1.265835   0.989402
     2  O   -1.265835   0.010598
 Sum of Mulliken charges =  -0.00000   1.00000

 Dipole moment (field-independent basis, Debye):
    X=              0.0000    Y=              0.0000    Z=              1.4874  Tot=              1.4874
 Quadrupole moment (field-independent basis, Debye-Ang):
   XX=            -22.3934   YY=            -22.3934   ZZ=            -30.3354
   XY=              0.0000   XZ=              0.0000   YZ=              0.0000

 \\#P ROCCSD(T)=(maxcyc=150, Full, SaveAmplitudes, ReadAmplitudes)/Gen
 8\CCSD=-62.4238284\CCSD(T)=-62.4561245\RMSD=7.492e-09\PG=C*V [C*(O1Sc1
 Normal termination of Gaussian 16 at Tue Feb 20 23:51:52 2018.
