 Gaussian 16, Revision A.03,
 Gaussian 16:  ES64L-G16RevA.03 25-Dec-2016

 ----------------------------------------------------------------------
 #P ROCCSD(T)=(MaxCyc=150, Full)/Gen SCF=(maxcycle=400, vshift=200) Pse
 udo=Read Integral(NoXCTest) Pop=Regular MaxDisk=500GB Guess=Read IOp(5
 /15=2)
 ----------------------------------------------------------------------

 ---
 FeH
 ---
 Symbolic Z-matrix:
 Charge =  0 Multiplicity = 4

                         Standard orientation:
 ---------------------------------------------------------------------
 Center     Atomic      Atomic             Coordinates (Angstroms)
 Number     Number       Type             X           Y           Z
 ---------------------------------------------------------------------
      1         26           0        0.000000    0.000000    0.059259
      2          1           0        0.000000    0.000000   -1.540741
 ---------------------------------------------------------------------

 SCF Done:  E(ROHF) =  -123.291574248     A.U. after   37 cycles
 E2 =    -0.7700196436D+00 EUMP2 =    -0.12406159389206D+03
 CCSD(T)
 CCSD(T)= -0.12406440080D+03

 Unable to determine electronic state:  an orbital has unidentified symmetry.
 Alpha  occ. eigenvalues --   -4.16893  -2.79003  -2.78393  -2.78393  -0.49866
 Alpha  occ. eigenvalues --   -0.49866  -0.49157  -0.44696  -0.44202  -0.31861
 Alpha virt. eigenvalues --   -0.00456   0.02430   0.02430   0.03222   0.04163
 Alpha virt. eigenvalues --    0.08432   0.08432   0.09577   0.10216   0.10255
 Alpha virt. eigenvalues --    0.10397   0.10397   0.10774   0.17154   0.23719

 Mulliken charges and spin densities:
               1          2
     1  Fe   0.429443   2.997908
     2  H   -0.429443   0.002092
 Sum of Mulliken charges =  -0.00000   3.00000

 Dipole moment (field-independent basis, Debye):
    X=              0.0000    Y=              0.0000    Z=              4.4503  Tot=              4.4503
 Quadrupole moment (field-independent basis, Debye-Ang):
   XX=            -15.6042   YY=            -15.6042   ZZ=            -17.5254
   XY=              0.0000   XZ=              0.0000   YZ=              0.0000

 \\#P ROCCSD(T)=(MaxCyc=150, Full)/Gen SCF=(maxcycle=400, vshift=200) P
 \PMP2-0=-124.0615939\MP4SDQ=-124.0445101\CCSD=-124.0366895\CCSD(T)=-12
 Normal termination of Gaussian 16 at Sat Mar 24 00:37:36 2018.
