 Gaussian 16, Revision A.03,
 Gaussian 16:  ES64L-G16RevA.03 25-Dec-2016

 ----------------------------------------------------------------------
 #P ROCCSD(T)=(MaxCyc=150, Full)/Gen SCF=(maxcycle=400, vshift=200) Pse
 udo=Read Integral(NoXCTest) Pop=Regular MaxDisk=500GB Guess=Read IOp(5
 /15=2)
 ----------------------------------------------------------------------

 ---
 FeH
 ---
 Symbolic Z-matrix:
 Charge =  0 Multiplicity = 4

                         Standard orientation:
 ---------------------------------------------------------------------
 Center     Atomic      Atomic             Coordinates (Angstroms)
 Number     Number       Type             X           Y           Z
 ---------------------------------------------------------------------
      1         26           0        0.000000    0.000000    0.059259
      2          1           0        0.000000    0.000000   -1.540741
 ---------------------------------------------------------------------

 SCF Done:  E(ROHF) =  -123.293157578     A.U. after   16 cycles
 E2 =    -0.8199989306D+00 EUMP2 =    -0.12411315650853D+03
 CCSD(T)
 CCSD(T)= -0.12411166867D+03

 Unable to determine electronic state:  an orbital has unidentified symmetry.
 Alpha  occ. eigenvalues --   -4.16869  -2.78980  -2.78372  -2.78372  -0.49864
 Alpha  occ. eigenvalues --   -0.49864  -0.49157  -0.44705  -0.44209  -0.31863
 Alpha virt. eigenvalues --   -0.00499   0.02128   0.02128   0.02623   0.03362
 Alpha virt. eigenvalues --    0.05775   0.06206   0.06217   0.06347   0.06347
 Alpha virt. eigenvalues --    0.07369   0.07369   0.08648   0.12951   0.16605

 Mulliken charges and spin densities:
               1          2
     1  Fe   0.278335   2.995629
     2  H   -0.278335   0.004371
 Sum of Mulliken charges =  -0.00000   3.00000

 Dipole moment (field-independent basis, Debye):
    X=              0.0000    Y=              0.0000    Z=              4.4449  Tot=              4.4449
 Quadrupole moment (field-independent basis, Debye-Ang):
   XX=            -15.5887   YY=            -15.5887   ZZ=            -17.5389
   XY=              0.0000   XZ=              0.0000   YZ=              0.0000

 \\#P ROCCSD(T)=(MaxCyc=150, Full)/Gen SCF=(maxcycle=400, vshift=200) P
 \PMP2-0=-124.1131565\MP4SDQ=-124.0897215\CCSD=-124.0815357\CCSD(T)=-12
 Normal termination of Gaussian 16 at Sat Mar 24 03:24:24 2018.
