 Gaussian 16, Revision A.03,
 Gaussian 16:  ES64L-G16RevA.03 25-Dec-2016

 ----------------------------------------------------------------------
 #P ROCCSD(T)=(MaxCyc=150, Full)/Gen SCF=(maxcycle=400, vshift=200) Pse
 udo=Read Integral(NoXCTest) Pop=Regular MaxDisk=500GB Guess=Read IOp(5
 /15=2)
 ----------------------------------------------------------------------

 ---
 FeH
 ---
 Symbolic Z-matrix:
 Charge =  0 Multiplicity = 4

                         Standard orientation:
 ---------------------------------------------------------------------
 Center     Atomic      Atomic             Coordinates (Angstroms)
 Number     Number       Type             X           Y           Z
 ---------------------------------------------------------------------
      1         26           0        0.000000    0.000000    0.059259
      2          1           0        0.000000    0.000000   -1.540741
 ---------------------------------------------------------------------

 SCF Done:  E(ROHF) =  -123.292991628     A.U. after   28 cycles
 E2 =    -0.8057549733D+00 EUMP2 =    -0.12409874660082D+03
 CCSD(T)
 CCSD(T)= -0.12409935179D+03

 Unable to determine electronic state:  partially filled degenerate orbitals.
 Alpha  occ. eigenvalues --   -4.16872  -2.78984  -2.78377  -2.78377  -0.49868
 Alpha  occ. eigenvalues --   -0.49868  -0.49161  -0.44703  -0.44208  -0.31862
 Alpha virt. eigenvalues --   -0.00473   0.02195   0.02195   0.02943   0.03895
 Alpha virt. eigenvalues --    0.06228   0.06776   0.06790   0.06862   0.06862
 Alpha virt. eigenvalues --    0.07724   0.07724   0.09887   0.16371   0.17899

 Mulliken charges and spin densities:
               1          2
     1  Fe   0.311971   2.996517
     2  H   -0.311971   0.003483
 Sum of Mulliken charges =  -0.00000   3.00000

 Dipole moment (field-independent basis, Debye):
    X=              0.0000    Y=              0.0000    Z=              4.4452  Tot=              4.4452
 Quadrupole moment (field-independent basis, Debye-Ang):
   XX=            -15.5910   YY=            -15.5910   ZZ=            -17.5359
   XY=              0.0000   XZ=              0.0000   YZ=              0.0000

 \\#P ROCCSD(T)=(MaxCyc=150, Full)/Gen SCF=(maxcycle=400, vshift=200) P
 PMP2-0=-124.0987466\MP4SDQ=-124.0779699\CCSD=-124.0698512\CCSD(T)=-124
 Normal termination of Gaussian 16 at Sat Mar 24 01:25:25 2018.
