 Gaussian 16, Revision A.03,
 Gaussian 16:  ES64L-G16RevA.03 25-Dec-2016

 ----------------------------------------------------------------------
 #P ROCCSD(T)=(maxcyc=150, Full, SaveAmplitudes, ReadAmplitudes)/Gen 5d
  7f SCF=(maxcycles=300) Integral(NoXCTest) MaxDisk=500GB Pop=Regular P
 seudo=Read Guess=Read IOp(5/15=2)
 ----------------------------------------------------------------------

 ---
 CrO
 ---
 Symbolic Z-matrix:
 Charge =  0 Multiplicity = 5

                         Standard orientation:
 ---------------------------------------------------------------------
 Center     Atomic      Atomic             Coordinates (Angstroms)
 Number     Number       Type             X           Y           Z
 ---------------------------------------------------------------------
      1         24           0        0.000000    0.000000    0.425000
      2          8           0        0.000000    0.000000   -1.275000
 ---------------------------------------------------------------------

 SCF Done:  E(ROHF) =  -101.839746579     A.U. after   39 cycles
 E2 =    -0.8605091105D+00 EUMP2 =    -0.10270025568921D+03
 CCSD(T)
 CCSD(T)= -0.10274511786D+03

 Unable to determine electronic state:  an orbital has unidentified symmetry.
 Alpha  occ. eigenvalues --   -3.76202  -2.50871  -2.46221  -2.45040  -1.11190
 Alpha  occ. eigenvalues --   -0.56132  -0.55965  -0.54243  -0.49720  -0.36715
 Alpha  occ. eigenvalues --   -0.33943  -0.32773
 Alpha virt. eigenvalues --   -0.03389   0.00882   0.01575   0.02218   0.03726
 Alpha virt. eigenvalues --    0.05085   0.06378   0.07508   0.07523   0.07690
 Alpha virt. eigenvalues --    0.08309   0.08792   0.13298   0.14646   0.15650

 Mulliken charges and spin densities:
               1          2
     1  Cr   1.186335   3.904150
     2  O   -1.186335   0.095850
 Sum of Mulliken charges =  -0.00000   4.00000

 Dipole moment (field-independent basis, Debye):
    X=              0.0000    Y=              0.0000    Z=              8.8599  Tot=              8.8599
 Quadrupole moment (field-independent basis, Debye-Ang):
   XX=            -19.7805   YY=            -18.7507   ZZ=            -23.1932
   XY=              0.0000   XZ=              0.0000   YZ=              0.0000

 \\#P ROCCSD(T)=(maxcyc=150, Full, SaveAmplitudes, ReadAmplitudes)/Gen
 SD=-102.6950363\CCSD(T)=-102.7451179\RMSD=3.540e-09\PG=C*V [C*(O1Cr1)]
 Normal termination of Gaussian 16 at Tue Mar 13 06:41:58 2018.
