 Gaussian 16, Revision A.03,
 Gaussian 16:  ES64L-G16RevA.03 25-Dec-2016

 ----------------------------------------------------------------------
 #P ROCCSD(T)=(maxcyc=150, Full, SaveAmplitudes, ReadAmplitudes)/Gen 5d
  7f SCF=(maxcycles=300) Integral(NoXCTest) MaxDisk=500GB Pop=Regular P
 seudo=Read Guess=Read
 ----------------------------------------------------------------------

 ---
 ScO
 ---
 Symbolic Z-matrix:
 Charge =  0 Multiplicity = 2

                         Standard orientation:
 ---------------------------------------------------------------------
 Center     Atomic      Atomic             Coordinates (Angstroms)
 Number     Number       Type             X           Y           Z
 ---------------------------------------------------------------------
      1         21           0        0.000000    0.000000    0.551724
      2          8           0        0.000000    0.000000   -1.448276
 ---------------------------------------------------------------------

 SCF Done:  E(ROHF) =  -61.8883399835     A.U. after   17 cycles
 E2 =    -0.7259959853D+00 EUMP2 =    -0.62614335968823D+02
 CCSD(T)
 CCSD(T)= -0.62645751666D+02

 The electronic state is 2-SG.
 Alpha  occ. eigenvalues --   -2.73753  -1.70494  -1.70494  -1.69978  -1.09789
 Alpha  occ. eigenvalues --   -0.38948  -0.34743  -0.34743  -0.28360
 Alpha virt. eigenvalues --   -0.01342  -0.01342   0.00488   0.01616   0.02375
 Alpha virt. eigenvalues --    0.02375   0.02519   0.02519   0.03042   0.03301
 Alpha virt. eigenvalues --    0.03301   0.04045   0.04394   0.04394   0.08633

 Mulliken charges and spin densities:
               1          2
     1  Sc   1.190977   0.981379
     2  O   -1.190977   0.018621
 Sum of Mulliken charges =  -0.00000   1.00000

 Dipole moment (field-independent basis, Debye):
    X=              0.0000    Y=              0.0000    Z=              7.4487  Tot=              7.4487
 Quadrupole moment (field-independent basis, Debye-Ang):
   XX=            -22.0830   YY=            -22.0830   ZZ=            -34.8594
   XY=              0.0000   XZ=              0.0000   YZ=              0.0000

 \\#P ROCCSD(T)=(maxcyc=150, Full, SaveAmplitudes, ReadAmplitudes)/Gen
 \PMP2-0=-62.614336\CCSD=-62.5919954\CCSD(T)=-62.6457517\RMSD=2.250e-10
 Normal termination of Gaussian 16 at Wed Mar 14 10:14:22 2018.
