 Gaussian 16, Revision A.03,
 Gaussian 16:  ES64L-G16RevA.03 25-Dec-2016

 ----------------------------------------------------------------------
 #P ROCCSD(T)=(maxcyc=150, Full, SaveAmplitudes, ReadAmplitudes)/Gen 5d
  7f SCF=(maxcycles=300) Integral(NoXCTest) MaxDisk=500GB Pop=Regular P
 seudo=Read Guess=Read IOp(5/15=2)
 ----------------------------------------------------------------------

 ---
 ScO
 ---
 Symbolic Z-matrix:
 Charge =  0 Multiplicity = 2

                         Standard orientation:
 ---------------------------------------------------------------------
 Center     Atomic      Atomic             Coordinates (Angstroms)
 Number     Number       Type             X           Y           Z
 ---------------------------------------------------------------------
      1         21           0        0.000000    0.000000    0.468966
      2          8           0        0.000000    0.000000   -1.231034
 ---------------------------------------------------------------------

 SCF Done:  E(ROHF) =  -62.0651489178     A.U. after   16 cycles
 E2 =    -0.6815528656D+00 EUMP2 =    -0.62746701783412D+02
 CCSD(T)
 CCSD(T)= -0.62776486279D+02

 The electronic state is 2-SG.
 Alpha  occ. eigenvalues --   -2.69797  -1.66751  -1.63795  -1.63795  -1.12599
 Alpha  occ. eigenvalues --   -0.42685  -0.41015  -0.41015  -0.25400
 Alpha virt. eigenvalues --   -0.00025  -0.00025   0.01415   0.02244   0.03538
 Alpha virt. eigenvalues --    0.03538   0.03584   0.03584   0.04204   0.04204
 Alpha virt. eigenvalues --    0.04392   0.05437   0.08135   0.08135   0.10465

 Mulliken charges and spin densities:
               1          2
     1  Sc   1.255913   0.974612
     2  O   -1.255913   0.025388
 Sum of Mulliken charges =  -0.00000   1.00000

 Dipole moment (field-independent basis, Debye):
    X=              0.0000    Y=              0.0000    Z=              4.9351  Tot=              4.9351
 Quadrupole moment (field-independent basis, Debye-Ang):
   XX=            -21.8023   YY=            -21.8023   ZZ=            -32.3670
   XY=              0.0000   XZ=              0.0000   YZ=              0.0000

 \\#P ROCCSD(T)=(maxcyc=150, Full, SaveAmplitudes, ReadAmplitudes)/Gen
 82\CCSD=-62.7360949\CCSD(T)=-62.7764863\RMSD=2.245e-09\PG=C*V [C*(O1Sc
 Normal termination of Gaussian 16 at Tue Feb 27 13:09:10 2018.
