 Gaussian 16, Revision A.03,
 Gaussian 16:  ES64L-G16RevA.03 25-Dec-2016

 ----------------------------------------------------------------------
 #P ROCCSD(T)=(maxcyc=150, Full)/Gen 5d 7f SCF=(maxcycles=300) Integral
 (NoXCTest) MaxDisk=500GB Pop=Regular Pseudo=Read IOp(5/15=2) Guess=Rea
 d
 ----------------------------------------------------------------------

 ---
 ScH
 ---
 Symbolic Z-matrix:
 Charge =  0 Multiplicity = 1

                         Standard orientation:
 ---------------------------------------------------------------------
 Center     Atomic      Atomic             Coordinates (Angstroms)
 Number     Number       Type             X           Y           Z
 ---------------------------------------------------------------------
      1         21           0        0.000000    0.000000    0.054545
      2          1           0        0.000000    0.000000   -1.145455
 ---------------------------------------------------------------------

 SCF Done:  E(ROHF) =  -46.6811576426     A.U. after   12 cycles
 E2 =    -0.4330696074D+00 EUMP2 =    -0.47114227249961D+02
 CCSD(T)
 CCSD(T)= -0.47151453500D+02

 The electronic state is 1-SG.
 Alpha  occ. eigenvalues --   -2.65461  -1.63457  -1.58846  -1.58846  -0.46840
 Alpha  occ. eigenvalues --   -0.21560
 Alpha virt. eigenvalues --    0.01341   0.01341   0.01410   0.01979   0.02885
 Alpha virt. eigenvalues --    0.02885   0.02899   0.02905   0.02905   0.04368
 Alpha virt. eigenvalues --    0.04497   0.04497   0.08054   0.08282   0.08282

 Mulliken charges and spin densities:
               1          2
     1  Sc   0.208194   0.000000
     2  H   -0.208194   0.000000
 Sum of Mulliken charges =  -0.00000   0.00000

 Dipole moment (field-independent basis, Debye):
    X=              0.0000    Y=              0.0000    Z=              0.7462  Tot=              0.7462
 Quadrupole moment (field-independent basis, Debye-Ang):
   XX=            -23.4861   YY=            -23.4861   ZZ=            -22.3971
   XY=              0.0000   XZ=              0.0000   YZ=              0.0000

 P ROCCSD(T)=(maxcyc=150, Full)/Gen 5d 7f SCF=(maxcycles=300) Integral(
 PMP2-0=-47.1142272\MP4SDQ=-47.1335417\CCSD=-47.1330884\CCSD(T)=-47.151
 Normal termination of Gaussian 16 at Tue Feb 13 19:28:19 2018.
