 Gaussian 16, Revision A.03,
 Gaussian 16:  ES64L-G16RevA.03 25-Dec-2016

 ----------------------------------------------------------------------
 #P ROCCSD(T)=(maxcyc=150, Full)/Gen 5d 7f SCF=(maxcycles=300) Integral
 (NoXCTest) MaxDisk=500GB Pop=Regular Pseudo=Read IOp(5/15=2) Guess=Rea
 d
 ----------------------------------------------------------------------

 ---
 ScH
 ---
 Symbolic Z-matrix:
 Charge =  0 Multiplicity = 1

                         Standard orientation:
 ---------------------------------------------------------------------
 Center     Atomic      Atomic             Coordinates (Angstroms)
 Number     Number       Type             X           Y           Z
 ---------------------------------------------------------------------
      1         21           0        0.000000    0.000000    0.068182
      2          1           0        0.000000    0.000000   -1.431818
 ---------------------------------------------------------------------

 SCF Done:  E(ROHF) =  -46.7788278593     A.U. after   11 cycles
 E2 =    -0.4267042096D+00 EUMP2 =    -0.47205532068829D+02
 CCSD(T)
 CCSD(T)= -0.47245764568D+02

 The electronic state is 1-SG.
 Alpha  occ. eigenvalues --   -2.69619  -1.64188  -1.63202  -1.63202  -0.44150
 Alpha  occ. eigenvalues --   -0.22358
 Alpha virt. eigenvalues --    0.01256   0.01256   0.01576   0.01895   0.02880
 Alpha virt. eigenvalues --    0.02880   0.02903   0.02903   0.02916   0.04318
 Alpha virt. eigenvalues --    0.04318   0.04495   0.07852   0.07935   0.07935

 Mulliken charges and spin densities:
               1          2
     1  Sc   0.277956   0.000000
     2  H   -0.277956   0.000000
 Sum of Mulliken charges =  -0.00000   0.00000

 Dipole moment (field-independent basis, Debye):
    X=              0.0000    Y=              0.0000    Z=              0.7781  Tot=              0.7781
 Quadrupole moment (field-independent basis, Debye-Ang):
   XX=            -23.1777   YY=            -23.1777   ZZ=            -24.4417
   XY=              0.0000   XZ=              0.0000   YZ=              0.0000

 P ROCCSD(T)=(maxcyc=150, Full)/Gen 5d 7f SCF=(maxcycles=300) Integral(
 PMP2-0=-47.2055321\MP4SDQ=-47.2274228\CCSD=-47.2270152\CCSD(T)=-47.245
 Normal termination of Gaussian 16 at Wed Feb 14 00:27:54 2018.
