 Gaussian 16, Revision A.03,
 Gaussian 16:  ES64L-G16RevA.03 25-Dec-2016

 ----------------------------------------------------------------------
 #P ROCCSD(T)=(MaxCyc=150, Full)/Gen SCF=(maxcycle=400, vshift=200) Pse
 udo=Read Integral(NoXCTest) Pop=Regular MaxDisk=500GB Guess=Read IOp(5
 /15=2)
 ----------------------------------------------------------------------

 ---
 CoO
 ---
 Symbolic Z-matrix:
 Charge =  0 Multiplicity = 4

                         Standard orientation:
 ---------------------------------------------------------------------
 Center     Atomic      Atomic             Coordinates (Angstroms)
 Number     Number       Type             X           Y           Z
 ---------------------------------------------------------------------
      1         27           0        0.000000    0.000000    0.388571
      2          8           0        0.000000    0.000000   -1.311429
 ---------------------------------------------------------------------

 SCF Done:  E(ROHF) =  -159.985854639     A.U. after   21 cycles
 E2 =    -0.1114791316D+01 EUMP2 =    -0.16110064595546D+03
 CCSD(T)
 CCSD(T)= -0.16112268092D+03

 Unable to determine electronic state:  partially filled degenerate orbitals.
 Alpha  occ. eigenvalues --   -4.84281  -3.25956  -3.25858  -3.25858  -1.15468
 Alpha  occ. eigenvalues --   -0.76625  -0.76625  -0.75975  -0.70972  -0.68485
 Alpha  occ. eigenvalues --   -0.38258  -0.38258  -0.35721
 Alpha virt. eigenvalues --   -0.04996   0.01734   0.01734   0.01933   0.03757
 Alpha virt. eigenvalues --    0.06680   0.06680   0.07070   0.07080   0.07095
 Alpha virt. eigenvalues --    0.08242   0.08242   0.12534   0.14370   0.20947

 Mulliken charges and spin densities:
               1          2
     1  Co   1.001565   2.932145
     2  O   -1.001565   0.067855
 Sum of Mulliken charges =  -0.00000   3.00000

 Dipole moment (field-independent basis, Debye):
    X=              0.0000    Y=              0.0000    Z=              7.9837  Tot=              7.9837
 Quadrupole moment (field-independent basis, Debye-Ang):
   XX=            -19.0417   YY=            -19.0417   ZZ=            -22.2666
   XY=              0.0000   XZ=              0.0000   YZ=              0.0000

 \\#P ROCCSD(T)=(MaxCyc=150, Full)/Gen SCF=(maxcycle=400, vshift=200) P
 PMP2-0=-161.100646\MP4SDQ=-161.0729687\CCSD=-161.0648073\CCSD(T)=-161.
 Normal termination of Gaussian 16 at Thu May  3 18:03:48 2018.
