 Gaussian 16, Revision A.03,
 Gaussian 16:  ES64L-G16RevA.03 25-Dec-2016

 ----------------------------------------------------------------------
 #P ROCCSD(T)=(MaxCyc=150, Full)/Gen SCF=(maxcycle=400, vshift=200) Pse
 udo=Read Integral(NoXCTest) Pop=Regular MaxDisk=500GB Guess=Read IOp(5
 /15=2)
 ----------------------------------------------------------------------

 ---
 CoO
 ---
 Symbolic Z-matrix:
 Charge =  0 Multiplicity = 4

                         Standard orientation:
 ---------------------------------------------------------------------
 Center     Atomic      Atomic             Coordinates (Angstroms)
 Number     Number       Type             X           Y           Z
 ---------------------------------------------------------------------
      1         27           0        0.000000    0.000000    0.388571
      2          8           0        0.000000    0.000000   -1.311429
 ---------------------------------------------------------------------

 SCF Done:  E(ROHF) =  -159.982502172     A.U. after   25 cycles
 E2 =    -0.1063068872D+01 EUMP2 =    -0.16104557104396D+03
 CCSD(T)
 CCSD(T)= -0.16107022120D+03

 Unable to determine electronic state:  partially filled degenerate orbitals.
 Alpha  occ. eigenvalues --   -4.84307  -3.25987  -3.25886  -3.25886  -1.15509
 Alpha  occ. eigenvalues --   -0.76633  -0.76633  -0.75982  -0.70977  -0.68495
 Alpha  occ. eigenvalues --   -0.38248  -0.38248  -0.35740
 Alpha virt. eigenvalues --   -0.05006   0.02032   0.02032   0.02180   0.04180
 Alpha virt. eigenvalues --    0.07657   0.07657   0.09834   0.10716   0.10744
 Alpha virt. eigenvalues --    0.11639   0.11639   0.14814   0.15372   0.26070

 Mulliken charges and spin densities:
               1          2
     1  Co   1.037389   2.932090
     2  O   -1.037389   0.067910
 Sum of Mulliken charges =  -0.00000   3.00000

 Dipole moment (field-independent basis, Debye):
    X=              0.0000    Y=              0.0000    Z=              7.9962  Tot=              7.9962
 Quadrupole moment (field-independent basis, Debye-Ang):
   XX=            -19.0453   YY=            -19.0453   ZZ=            -22.2859
   XY=              0.0000   XZ=              0.0000   YZ=              0.0000

 \\#P ROCCSD(T)=(MaxCyc=150, Full)/Gen SCF=(maxcycle=400, vshift=200) P
 PMP2-0=-161.045571\MP4SDQ=-161.0236556\CCSD=-161.0146022\CCSD(T)=-161.
 Normal termination of Gaussian 16 at Thu May  3 15:36:37 2018.
