 Gaussian 16, Revision A.03,
 Gaussian 16:  ES64L-G16RevA.03 25-Dec-2016

 ----------------------------------------------------------------------
 #P ROCCSD(T)=(maxcyc=150, Full, SaveAmplitudes, ReadAmplitudes)/Gen 5d
  7f SCF=(maxcycles=300) Integral(NoXCTest) MaxDisk=500GB Pop=Regular P
 seudo=Read Guess=Read IOp(5/15=2)
 ----------------------------------------------------------------------

 ---
 TiO
 ---
 Symbolic Z-matrix:
 Charge =  0 Multiplicity = 3

                         Standard orientation:
 ---------------------------------------------------------------------
 Center     Atomic      Atomic             Coordinates (Angstroms)
 Number     Number       Type             X           Y           Z
 ---------------------------------------------------------------------
      1         22           0        0.000000    0.000000    0.373333
      2          8           0        0.000000    0.000000   -1.026667
 ---------------------------------------------------------------------

 SCF Done:  E(ROHF) =  -73.4882637452     A.U. after   23 cycles
 E2 =    -0.7509731694D+00 EUMP2 =    -0.74239236914528D+02
 CCSD(T)
 CCSD(T)= -0.74264332633D+02

 Unable to determine electronic state:  an orbital has unidentified symmetry.
 Alpha  occ. eigenvalues --   -2.98799  -1.90307  -1.83780  -1.83780  -1.14877
 Alpha  occ. eigenvalues --   -0.53390  -0.53390  -0.50196  -0.38571  -0.23413
 Alpha virt. eigenvalues --    0.00985   0.00985   0.02194   0.02531   0.04611
 Alpha virt. eigenvalues --    0.04611   0.04995   0.05111   0.05282   0.05817
 Alpha virt. eigenvalues --    0.05817   0.08082   0.11540   0.12976   0.14344

 Mulliken charges and spin densities:
               1          2
     1  Ti   0.821133   2.021671
     2  O   -0.821133  -0.021671
 Sum of Mulliken charges =  -0.00000   2.00000

 Dipole moment (field-independent basis, Debye):
    X=              0.0000    Y=              0.0000    Z=              1.9515  Tot=              1.9515
 Quadrupole moment (field-independent basis, Debye-Ang):
   XX=            -21.6117   YY=            -21.6117   ZZ=            -27.7467
   XY=              0.0000   XZ=              0.0000   YZ=              0.0000

 \\#P ROCCSD(T)=(maxcyc=150, Full, SaveAmplitudes, ReadAmplitudes)/Gen
 .2261117\CCSD(T)=-74.2643326\RMSD=2.658e-09\PG=C*V [C*(O1Ti1)]\\@
 Normal termination of Gaussian 16 at Mon Mar 12 14:21:26 2018.
