 Gaussian 16, Revision A.03,
 Gaussian 16:  ES64L-G16RevA.03 25-Dec-2016

 ----------------------------------------------------------------------
 #P ROCCSD(T)=(maxcyc=150, Full, SaveAmplitudes, ReadAmplitudes)/Gen 5d
  7f SCF=(maxcycles=300) Integral(NoXCTest) MaxDisk=500GB Pop=Regular P
 seudo=Read Guess=Read IOp(5/15=2)
 ----------------------------------------------------------------------

 ---
 CrO
 ---
 Symbolic Z-matrix:
 Charge =  0 Multiplicity = 5

                         Standard orientation:
 ---------------------------------------------------------------------
 Center     Atomic      Atomic             Coordinates (Angstroms)
 Number     Number       Type             X           Y           Z
 ---------------------------------------------------------------------
      1         24           0        0.000000    0.000000    0.350000
      2          8           0        0.000000    0.000000   -1.050000
 ---------------------------------------------------------------------

 SCF Done:  E(ROHF) =  -101.841475241     A.U. after   28 cycles
 E2 =    -0.8772469941D+00 EUMP2 =    -0.10271872223474D+03
 CCSD(T)
 CCSD(T)= -0.10273591670D+03

 Unable to determine electronic state:  an orbital has unidentified symmetry.
 Alpha  occ. eigenvalues --   -3.76558  -2.50683  -2.46477  -2.45876  -1.23819
 Alpha  occ. eigenvalues --   -0.65459  -0.56972  -0.53867  -0.53468  -0.52126
 Alpha  occ. eigenvalues --   -0.38644  -0.28438
 Alpha virt. eigenvalues --    0.01075   0.01878   0.02180   0.03058   0.04943
 Alpha virt. eigenvalues --    0.05895   0.06782   0.07669   0.07675   0.07970
 Alpha virt. eigenvalues --    0.08497   0.09203   0.12540   0.15895   0.17930

 Mulliken charges and spin densities:
               1          2
     1  Cr   0.985680   3.812192
     2  O   -0.985680   0.187808
 Sum of Mulliken charges =  -0.00000   4.00000

 Dipole moment (field-independent basis, Debye):
    X=              0.0000    Y=              0.0000    Z=              3.0856  Tot=              3.0856
 Quadrupole moment (field-independent basis, Debye-Ang):
   XX=            -21.0403   YY=            -19.7752   ZZ=            -24.2407
   XY=              0.0000   XZ=              0.0000   YZ=              0.0000

 \\#P ROCCSD(T)=(maxcyc=150, Full, SaveAmplitudes, ReadAmplitudes)/Gen
 D=-102.6911886\CCSD(T)=-102.7359167\RMSD=2.605e-09\PG=C*V [C*(O1Cr1)]\
 Normal termination of Gaussian 16 at Mon Mar 12 14:31:06 2018.
