 Gaussian 16, Revision A.03,
 Gaussian 16:  ES64L-G16RevA.03 25-Dec-2016

 ----------------------------------------------------------------------
 #P ROCCSD(T)=(maxcyc=150, Full)/Gen 5d 7f SCF=(maxcycles=300) Integral
 (NoXCTest) MaxDisk=500GB Pop=Regular Pseudo=Read
 ----------------------------------------------------------------------

 ---
 CrH
 ---
 Symbolic Z-matrix:
 Charge =  0 Multiplicity = 6

                         Standard orientation:
 ---------------------------------------------------------------------
 Center     Atomic      Atomic             Coordinates (Angstroms)
 Number     Number       Type             X           Y           Z
 ---------------------------------------------------------------------
      1         24           0        0.000000    0.000000    0.080000
      2          1           0        0.000000    0.000000   -1.920000
 ---------------------------------------------------------------------

 SCF Done:  E(ROHF) =  -86.6847424578     A.U. after   36 cycles
 E2 =    -0.5192498579D+00 EUMP2 =    -0.87203992315685D+02
 CCSD(T)
 CCSD(T)= -0.87257399801D+02

 The electronic state is 6-SG.
 Alpha  occ. eigenvalues --   -3.75416  -2.50915  -2.50915  -2.45935  -0.57879
 Alpha  occ. eigenvalues --   -0.57879  -0.54395  -0.54395  -0.37769  -0.26820
 Alpha virt. eigenvalues --    0.01015   0.01015   0.02198   0.02633   0.05237
 Alpha virt. eigenvalues --    0.05237   0.05333   0.07491   0.07491   0.07979
 Alpha virt. eigenvalues --    0.07979   0.08998   0.10471   0.16758   0.20465

 Mulliken charges and spin densities:
               1          2
     1  Cr   0.371064   4.978084
     2  H   -0.371064   0.021916
 Sum of Mulliken charges =  -0.00000   5.00000

 Dipole moment (field-independent basis, Debye):
    X=              0.0000    Y=              0.0000    Z=              2.9713  Tot=              2.9713
 Quadrupole moment (field-independent basis, Debye-Ang):
   XX=            -17.2627   YY=            -17.2627   ZZ=            -26.9213
   XY=              0.0000   XZ=              0.0000   YZ=              0.0000

 \\#P ROCCSD(T)=(maxcyc=150, Full)/Gen 5d 7f SCF=(maxcycles=300) Integr
 4SDQ=-87.2208658\CCSD=-87.2423678\CCSD(T)=-87.2573998\RMSD=6.989e-09\P
 Normal termination of Gaussian 16 at Tue Feb 13 13:53:14 2018.
