 Gaussian 16, Revision A.03,
 Gaussian 16:  ES64L-G16RevA.03 25-Dec-2016

 ----------------------------------------------------------------------
 #P ROCCSD(T)=(MaxCyc=150, Full)/Gen SCF=(maxcycle=400) Pseudo=Read Int
 egral(NoXCTest) Pop=Regular MaxDisk=500GB Guess=Read
 ----------------------------------------------------------------------

 ---
 FeO
 ---
 Symbolic Z-matrix:
 Charge =  0 Multiplicity = 5

                         Standard orientation:
 ---------------------------------------------------------------------
 Center     Atomic      Atomic             Coordinates (Angstroms)
 Number     Number       Type             X           Y           Z
 ---------------------------------------------------------------------
      1         26           0        0.000000    0.000000    0.352941
      2          8           0        0.000000    0.000000   -1.147059
 ---------------------------------------------------------------------

 SCF Done:  E(ROHF) =  -138.467136921     A.U. after    1 cycles
 E2 =    -0.1068379701D+01 EUMP2 =    -0.13953551662267D+03
 CCSD(T)
 CCSD(T)= -0.13954944576D+03

 Unable to determine electronic state:  partially filled degenerate orbitals.
 Alpha  occ. eigenvalues --   -4.34527  -3.00549  -2.93594  -2.93594  -1.17752
 Alpha  occ. eigenvalues --   -0.68081  -0.68081  -0.62525  -0.61214  -0.57883
 Alpha  occ. eigenvalues --   -0.36560  -0.36560  -0.35124
 Alpha virt. eigenvalues --   -0.03143   0.01818   0.01818   0.02294   0.03564
 Alpha virt. eigenvalues --    0.06405   0.06405   0.06541   0.06551   0.06632
 Alpha virt. eigenvalues --    0.08145   0.08145   0.12347   0.13986   0.19440

 Mulliken charges and spin densities:
               1          2
     1  Fe   1.122812   3.790381
     2  O   -1.122812   0.209619
 Sum of Mulliken charges =   0.00000   4.00000

 Dipole moment (field-independent basis, Debye):
    X=              0.0000    Y=              0.0000    Z=              7.6505  Tot=              7.6505
 Quadrupole moment (field-independent basis, Debye-Ang):
   XX=            -18.2920   YY=            -18.2920   ZZ=            -21.3721
   XY=              0.0000   XZ=              0.0000   YZ=              0.0000

 \\#P ROCCSD(T)=(MaxCyc=150, Full)/Gen SCF=(maxcycle=400) Pseudo=Read I
 SDQ=-139.5171928\CCSD=-139.5005363\CCSD(T)=-139.5494458\RMSD=3.785e-09
 Normal termination of Gaussian 16 at Sun Mar 25 02:44:03 2018.
