 Gaussian 16, Revision A.03,
 Gaussian 16:  ES64L-G16RevA.03 25-Dec-2016

 ----------------------------------------------------------------------
 #P ROCCSD(T)=(MaxCyc=150, Full)/Gen SCF=(maxcycle=400) Pseudo=Read Int
 egral(NoXCTest) Pop=Regular MaxDisk=500GB
 ----------------------------------------------------------------------

 ---
 FeO
 ---
 Symbolic Z-matrix:
 Charge =  0 Multiplicity = 5

                         Standard orientation:
 ---------------------------------------------------------------------
 Center     Atomic      Atomic             Coordinates (Angstroms)
 Number     Number       Type             X           Y           Z
 ---------------------------------------------------------------------
      1         26           0        0.000000    0.000000    0.352941
      2          8           0        0.000000    0.000000   -1.147059
 ---------------------------------------------------------------------

 SCF Done:  E(ROHF) =  -138.463924273     A.U. after   34 cycles
 E2 =    -0.1020419700D+01 EUMP2 =    -0.13948434397295D+03
 CCSD(T)
 CCSD(T)= -0.13950089309D+03

 Unable to determine electronic state:  partially filled degenerate orbitals.
 Alpha  occ. eigenvalues --   -4.34557  -3.00583  -2.93619  -2.93619  -1.17801
 Alpha  occ. eigenvalues --   -0.68082  -0.68082  -0.62528  -0.61231  -0.57883
 Alpha  occ. eigenvalues --   -0.36557  -0.36557  -0.35140
 Alpha virt. eigenvalues --   -0.03148   0.02114   0.02114   0.02575   0.03973
 Alpha virt. eigenvalues --    0.07636   0.07636   0.09046   0.09754   0.09785
 Alpha virt. eigenvalues --    0.10783   0.10783   0.14402   0.14998   0.25536

 Mulliken charges and spin densities:
               1          2
     1  Fe   1.104537   3.783452
     2  O   -1.104537   0.216548
 Sum of Mulliken charges =   0.00000   4.00000

 Dipole moment (field-independent basis, Debye):
    X=              0.0000    Y=              0.0000    Z=              7.6606  Tot=              7.6606
 Quadrupole moment (field-independent basis, Debye-Ang):
   XX=            -18.2924   YY=            -18.2924   ZZ=            -21.3929
   XY=              0.0000   XZ=              0.0000   YZ=              0.0000

 \\#P ROCCSD(T)=(MaxCyc=150, Full)/Gen SCF=(maxcycle=400) Pseudo=Read I
 564\CCSD=-139.4542843\CCSD(T)=-139.5008931\RMSD=5.338e-09\PG=C*V [C*(O
 Normal termination of Gaussian 16 at Sun Mar 25 00:44:54 2018.
