 Gaussian 16, Revision A.03,
 Gaussian 16:  ES64L-G16RevA.03 25-Dec-2016

 ----------------------------------------------------------------------
 #P ROCCSD(T)=(maxcyc=150, Full, SaveAmplitudes, ReadAmplitudes)/Gen 5d
  7f SCF=(maxcycles=300, VShift=400) Integral(NoXCTest) MaxDisk=500GB P
 op=Full Pseudo=Read Guess=Read IOp(5/15=2)
 ----------------------------------------------------------------------

 ---
 MnO
 ---
 Symbolic Z-matrix:
 Charge =  0 Multiplicity = 6

                         Standard orientation:
 ---------------------------------------------------------------------
 Center     Atomic      Atomic             Coordinates (Angstroms)
 Number     Number       Type             X           Y           Z
 ---------------------------------------------------------------------
      1         25           0        0.000000    0.000000    0.315152
      2          8           0        0.000000    0.000000   -0.984848
 ---------------------------------------------------------------------

 SCF Done:  E(ROHF) =  -119.176785860     A.U. after   46 cycles
 E2 =    -0.9295834422D+00 EUMP2 =    -0.12010636930257D+03
 CCSD(T)
 CCSD(T)= -0.12011365811D+03

 The electronic state is 6-SG.
 Alpha  occ. eigenvalues --   -4.12448  -2.79208  -2.79208  -2.79095  -1.27797
 Alpha  occ. eigenvalues --   -0.73470  -0.73470  -0.61485  -0.61485  -0.60174
 Alpha  occ. eigenvalues --   -0.40772  -0.40772  -0.30090
 Alpha virt. eigenvalues --    0.01924   0.02418   0.02418   0.03159   0.06362
 Alpha virt. eigenvalues --    0.07572   0.07572   0.08761   0.08761   0.09357
 Alpha virt. eigenvalues --    0.09357   0.10263   0.12070   0.16329   0.24480

 Mulliken charges and spin densities:
               1          2
     1  Mn   0.796015   4.763686
     2  O   -0.796015   0.236314
 Sum of Mulliken charges =  -0.00000   5.00000

 Dipole moment (field-independent basis, Debye):
    X=              0.0000    Y=              0.0000    Z=              2.6988  Tot=              2.6988
 Quadrupole moment (field-independent basis, Debye-Ang):
   XX=            -19.8421   YY=            -19.8421   ZZ=            -22.9414
   XY=              0.0000   XZ=              0.0000   YZ=              0.0000

 \\#P ROCCSD(T)=(maxcyc=150, Full, SaveAmplitudes, ReadAmplitudes)/Gen
 4SDQ=-120.0884127\CCSD=-120.0743144\CCSD(T)=-120.1136581\RMSD=8.855e-0
 Normal termination of Gaussian 16 at Thu Mar 29 22:08:30 2018.
