 Gaussian 16, Revision A.03,
 Gaussian 16:  ES64L-G16RevA.03 25-Dec-2016

 ----------------------------------------------------------------------
 #P ROCCSD(T)=(maxcyc=150, Full, SaveAmplitudes, ReadAmplitudes)/Gen 5d
  7f SCF=(maxcycles=300, VShift=400) Integral(NoXCTest) MaxDisk=500GB P
 op=Full Pseudo=Read IOp(5/15=2)
 ----------------------------------------------------------------------

 ---
 CrO
 ---
 Symbolic Z-matrix:
 Charge =  0 Multiplicity = 5

                         Standard orientation:
 ---------------------------------------------------------------------
 Center     Atomic      Atomic             Coordinates (Angstroms)
 Number     Number       Type             X           Y           Z
 ---------------------------------------------------------------------
      1         24           0        0.000000    0.000000    0.475000
      2          8           0        0.000000    0.000000   -1.425000
 ---------------------------------------------------------------------

 SCF Done:  E(ROHF) =  -101.791751847     A.U. after   67 cycles
 E2 =    -0.8440783453D+00 EUMP2 =    -0.10263583019220D+03
 CCSD(T)
 CCSD(T)= -0.10269352012D+03

 Unable to determine electronic state:  an orbital has unidentified symmetry.
 Alpha  occ. eigenvalues --   -3.75765  -2.53204  -2.48149  -2.47398  -1.08645
 Alpha  occ. eigenvalues --   -0.59075  -0.56775  -0.56624  -0.53959  -0.33251
 Alpha  occ. eigenvalues --   -0.32751  -0.31914
 Alpha virt. eigenvalues --   -0.05301   0.00510   0.01180   0.01546   0.03698
 Alpha virt. eigenvalues --    0.04758   0.05966   0.07331   0.07335   0.07623
 Alpha virt. eigenvalues --    0.08314   0.08575   0.12613   0.12636   0.15491

 Mulliken charges and spin densities:
               1          2
     1  Cr   1.124865   3.965015
     2  O   -1.124865   0.034985
 Sum of Mulliken charges =  -0.00000   4.00000

 Dipole moment (field-independent basis, Debye):
    X=              0.0000    Y=              0.0000    Z=             10.1815  Tot=             10.1815
 Quadrupole moment (field-independent basis, Debye-Ang):
   XX=            -19.0676   YY=            -19.7597   ZZ=            -24.9292
   XY=              0.0000   XZ=              0.0000   YZ=              0.0000

 \\#P ROCCSD(T)=(maxcyc=150, Full, SaveAmplitudes, ReadAmplitudes)/Gen
 =-102.6394353\CCSD(T)=-102.6935201\RMSD=9.499e-09\PG=C*V [C*(O1Cr1)]\\
 Normal termination of Gaussian 16 at Wed Apr  4 22:22:26 2018.
