 Gaussian 16, Revision A.03,
 Gaussian 16:  ES64L-G16RevA.03 25-Dec-2016

 ----------------------------------------------------------------------
 #P ROCCSD(T)=(maxcyc=150, FrzINGC)/Gen 5d 7f SCF=(maxcycles=300) Integ
 ral(NoXCTest, DKHSO) MaxDisk=500GB Pop=Regular IOp(5/15=2) Guess=Read
 ----------------------------------------------------------------------

 ---
 ScH
 ---
 Symbolic Z-matrix:
 Charge =  0 Multiplicity = 1

                         Standard orientation:
 ---------------------------------------------------------------------
 Center     Atomic      Atomic             Coordinates (Angstroms)
 Number     Number       Type             X           Y           Z
 ---------------------------------------------------------------------
      1         21           0        0.000000    0.000000    0.081818
      2          1           0        0.000000    0.000000   -1.718182
 ---------------------------------------------------------------------

 SCF Done:  E(ROHF) =  -763.832877116     A.U. after   10 cycles
 E2 =    -0.3927316963D+00 EUMP2 =    -0.76422560881190D+03
 CCSD(T)
 CCSD(T)= -0.76426864124D+03

 The electronic state is 1-SG.
 Alpha  occ. eigenvalues -- -166.92279 -19.37836 -15.80168 -15.80168 -15.79404
 Alpha  occ. eigenvalues --   -2.68785  -1.66310  -1.66310  -1.66263  -0.40589
 Alpha  occ. eigenvalues --   -0.23276
 Alpha virt. eigenvalues --    0.01092   0.01092   0.01512   0.01945   0.02846
 Alpha virt. eigenvalues --    0.02846   0.02925   0.02925   0.02952   0.04054
 Alpha virt. eigenvalues --    0.04054   0.04270   0.07232   0.07232   0.07768

 Mulliken charges and spin densities:
               1          2
     1  Sc   0.263435   0.000000
     2  H   -0.263435   0.000000
 Sum of Mulliken charges =  -0.00000   0.00000

 Dipole moment (field-independent basis, Debye):
    X=              0.0000    Y=             -0.0000    Z=              1.4194  Tot=              1.4194
 Quadrupole moment (field-independent basis, Debye-Ang):
   XX=            -23.4701   YY=            -23.4701   ZZ=            -27.4233
   XY=             -0.0000   XZ=              0.0000   YZ=             -0.0000

  ROCCSD(T)=(maxcyc=150, FrzINGC)/Gen 5d 7f SCF=(maxcycles=300) Integra
 \PMP2-0=-764.2256088\MP4SDQ=-764.2504891\CCSD=-764.2511803\CCSD(T)=-76
 Normal termination of Gaussian 16 at Tue Feb 13 19:35:01 2018.
