 Gaussian 16, Revision A.03,
 Gaussian 16:  ES64L-G16RevA.03 25-Dec-2016

 ----------------------------------------------------------------------
 #P ROCCSD(T)=(maxcyc=150, Full)/Gen 5d 7f SCF=(maxcycles=300) Integral
 (NoXCTest) MaxDisk=500GB Pop=Regular Pseudo=Read IOp(5/15=2) Guess=Rea
 d
 ----------------------------------------------------------------------

 ---
 ScH
 ---
 Symbolic Z-matrix:
 Charge =  0 Multiplicity = 1

                         Standard orientation:
 ---------------------------------------------------------------------
 Center     Atomic      Atomic             Coordinates (Angstroms)
 Number     Number       Type             X           Y           Z
 ---------------------------------------------------------------------
      1         21           0        0.000000    0.000000    0.100000
      2          1           0        0.000000    0.000000   -2.100000
 ---------------------------------------------------------------------

 SCF Done:  E(ROHF) =  -46.7761000489     A.U. after   10 cycles
 E2 =    -0.4249946756D+00 EUMP2 =    -0.47201094724510D+02
 CCSD(T)
 CCSD(T)= -0.47247444852D+02

 The electronic state is 1-SG.
 Alpha  occ. eigenvalues --   -2.76479  -1.69697  -1.69697  -1.69491  -0.35747
 Alpha  occ. eigenvalues --   -0.24756
 Alpha virt. eigenvalues --    0.00845   0.00845   0.00985   0.01868   0.02549
 Alpha virt. eigenvalues --    0.02549   0.02690   0.02690   0.02776   0.03321
 Alpha virt. eigenvalues --    0.03706   0.03706   0.05959   0.05959   0.06839

 Mulliken charges and spin densities:
               1          2
     1  Sc   0.353189   0.000000
     2  H   -0.353189   0.000000
 Sum of Mulliken charges =  -0.00000   0.00000

 Dipole moment (field-independent basis, Debye):
    X=              0.0000    Y=              0.0000    Z=              2.9707  Tot=              2.9707
 Quadrupole moment (field-independent basis, Debye-Ang):
   XX=            -22.7209   YY=            -22.7209   ZZ=            -30.0574
   XY=              0.0000   XZ=              0.0000   YZ=              0.0000

 P ROCCSD(T)=(maxcyc=150, Full)/Gen 5d 7f SCF=(maxcycles=300) Integral(
 =-47.2010947\MP4SDQ=-47.2252849\CCSD=-47.2263329\CCSD(T)=-47.2474449\R
 Normal termination of Gaussian 16 at Wed Feb 14 13:39:46 2018.
