 Gaussian 16, Revision A.03,
 Gaussian 16:  ES64L-G16RevA.03 25-Dec-2016

 ----------------------------------------------------------------------
 #P ROCCSD(T)=(MaxCyc=150, Full)/Gen SCF=(maxcycle=400) Pseudo=Read Int
 egral(NoXCTest) Pop=Regular MaxDisk=500GB Guess=Read IOp(5/15=2)
 ----------------------------------------------------------------------

 ---
 CuO
 ---
 Symbolic Z-matrix:
 Charge =  0 Multiplicity = 2

                         Standard orientation:
 ---------------------------------------------------------------------
 Center     Atomic      Atomic             Coordinates (Angstroms)
 Number     Number       Type             X           Y           Z
 ---------------------------------------------------------------------
      1         29           0        0.000000    0.000000    0.389189
      2          8           0        0.000000    0.000000   -1.410811
 ---------------------------------------------------------------------

 SCF Done:  E(ROHF) =  -211.697204695     A.U. after   19 cycles
 E2 =    -0.1351381499D+01 EUMP2 =    -0.21304858619422D+03
 CCSD(T)
 CCSD(T)= -0.21297904509D+03

 Unable to determine electronic state:  an orbital has unidentified symmetry.
 Alpha  occ. eigenvalues --   -5.26665  -3.38695  -3.38523  -3.38329  -1.22506
 Alpha  occ. eigenvalues --   -0.56454  -0.53827  -0.53403  -0.52006  -0.52005
 Alpha  occ. eigenvalues --   -0.48069  -0.41580  -0.40651
 Alpha virt. eigenvalues --   -0.01456   0.02490   0.02618   0.03454   0.04390
 Alpha virt. eigenvalues --    0.08744   0.08983   0.11567   0.13275   0.13281
 Alpha virt. eigenvalues --    0.14498   0.14579   0.15048   0.18912   0.21302

 Mulliken charges and spin densities:
               1          2
     1  Cu   0.757862   0.014325
     2  O   -0.757862   0.985675
 Sum of Mulliken charges =   0.00000   1.00000

 Dipole moment (field-independent basis, Debye):
    X=              0.0000    Y=              0.0000    Z=              5.9930  Tot=              5.9930
 Quadrupole moment (field-independent basis, Debye-Ang):
   XX=            -15.4987   YY=            -17.0479   ZZ=            -20.9409
   XY=              0.0000   XZ=              0.0000   YZ=              0.0000

 \\#P ROCCSD(T)=(MaxCyc=150, Full)/Gen SCF=(maxcycle=400) Pseudo=Read I
 .0485862\MP4SDQ=-213.0056731\CCSD=-212.9316048\CCSD(T)=-212.9790451\RM
 Normal termination of Gaussian 16 at Mon Mar 26 13:07:07 2018.
