 Gaussian 16, Revision A.03,
 Gaussian 16:  ES64L-G16RevA.03 25-Dec-2016

 ----------------------------------------------------------------------
 #P ROCCSD(T)=(MaxCyc=150, Full)/Gen SCF=(maxcycle=400) Pseudo=Read Int
 egral(NoXCTest) Pop=Regular MaxDisk=500GB Guess=Read IOp(5/15=2)
 ----------------------------------------------------------------------

 ---
 CuO
 ---
 Symbolic Z-matrix:
 Charge =  0 Multiplicity = 2

                         Standard orientation:
 ---------------------------------------------------------------------
 Center     Atomic      Atomic             Coordinates (Angstroms)
 Number     Number       Type             X           Y           Z
 ---------------------------------------------------------------------
      1         29           0        0.000000    0.000000    0.389189
      2          8           0        0.000000    0.000000   -1.410811
 ---------------------------------------------------------------------

 SCF Done:  E(ROHF) =  -211.692746938     A.U. after   19 cycles
 E2 =    -0.1287402071D+01 EUMP2 =    -0.21298014900907D+03
 CCSD(T)
 CCSD(T)= -0.21291352379D+03

 Unable to determine electronic state:  an orbital has unidentified symmetry.
 Alpha  occ. eigenvalues --   -5.26689  -3.38728  -3.38552  -3.38356  -1.22552
 Alpha  occ. eigenvalues --   -0.56452  -0.53829  -0.53417  -0.52007  -0.52006
 Alpha  occ. eigenvalues --   -0.48070  -0.41578  -0.40660
 Alpha virt. eigenvalues --   -0.01457   0.02790   0.02947   0.03920   0.04609
 Alpha virt. eigenvalues --    0.10210   0.10520   0.13552   0.19370   0.19404
 Alpha virt. eigenvalues --    0.19477   0.20496   0.21621   0.22701   0.26000

 Mulliken charges and spin densities:
               1          2
     1  Cu   0.808503   0.014332
     2  O   -0.808503   0.985668
 Sum of Mulliken charges =   0.00000   1.00000

 Dipole moment (field-independent basis, Debye):
    X=              0.0000    Y=              0.0000    Z=              6.0078  Tot=              6.0078
 Quadrupole moment (field-independent basis, Debye-Ang):
   XX=            -15.5074   YY=            -17.0742   ZZ=            -20.9291
   XY=              0.0000   XZ=              0.0000   YZ=              0.0000

 \\#P ROCCSD(T)=(MaxCyc=150, Full)/Gen SCF=(maxcycle=400) Pseudo=Read I
 980149\MP4SDQ=-212.9433105\CCSD=-212.868617\CCSD(T)=-212.9135238\RMSD=
 Normal termination of Gaussian 16 at Mon Mar 26 10:32:19 2018.
