 Gaussian 16, Revision A.03,
 Gaussian 16:  ES64L-G16RevA.03 25-Dec-2016

 ----------------------------------------------------------------------
 #P ROCCSD(T)=(MaxCyc=150, Full)/Gen SCF=(maxcycle=400, vshift=200) Pse
 udo=Read Integral(NoXCTest) Pop=Regular MaxDisk=500GB Guess=Read IOp(5
 /15=2)
 ----------------------------------------------------------------------

 ---
 ZnH
 ---
 Symbolic Z-matrix:
 Charge =  0 Multiplicity = 2

                         Standard orientation:
 ---------------------------------------------------------------------
 Center     Atomic      Atomic             Coordinates (Angstroms)
 Number     Number       Type             X           Y           Z
 ---------------------------------------------------------------------
      1         30           0        0.000000    0.000000    0.048387
      2          1           0        0.000000    0.000000   -1.451613
 ---------------------------------------------------------------------

 SCF Done:  E(ROHF) =  -225.799241488     A.U. after   20 cycles
 E2 =    -0.1033287167D+01 EUMP2 =    -0.22683252865539D+03
 CCSD(T)
 CCSD(T)= -0.22678374196D+03

 The electronic state is 2-SG.
 Alpha  occ. eigenvalues --   -5.87707  -3.95618  -3.95618  -3.95531  -0.80188
 Alpha  occ. eigenvalues --   -0.79954  -0.79954  -0.79494  -0.79494  -0.46674
 Alpha  occ. eigenvalues --   -0.27541
 Alpha virt. eigenvalues --    0.02100   0.02100   0.02845   0.03972   0.07703
 Alpha virt. eigenvalues --    0.07703   0.08863   0.15844   0.18587   0.24271
 Alpha virt. eigenvalues --    0.24271   0.25026   0.25026   0.25704   0.29234

 Mulliken charges and spin densities:
               1          2
     1  Zn   0.317827   0.942046
     2  H   -0.317827   0.057954
 Sum of Mulliken charges =  -0.00000   1.00000

 Dipole moment (field-independent basis, Debye):
    X=              0.0000    Y=              0.0000    Z=              0.4882  Tot=              0.4882
 Quadrupole moment (field-independent basis, Debye-Ang):
   XX=            -14.5588   YY=            -14.5588   ZZ=            -20.9721
   XY=              0.0000   XZ=              0.0000   YZ=              0.0000

 \\#P ROCCSD(T)=(MaxCyc=150, Full)/Gen SCF=(maxcycle=400, vshift=200) P
 CCSD(T)=-226.783742\RMSD=9.858e-09\PG=C*V [C*(H1Zn1)]\\@
 Normal termination of Gaussian 16 at Sat Apr 21 11:00:46 2018.
