 Gaussian 16, Revision A.03,
 Gaussian 16:  ES64L-G16RevA.03 25-Dec-2016

 ----------------------------------------------------------------------
 #P ROCCSD(T)=(MaxCyc=150, Full)/Gen SCF=(maxcycle=400, vshift=200) Pse
 udo=Read Integral(NoXCTest) Pop=Regular MaxDisk=500GB Guess=Read IOp(5
 /15=2)
 ----------------------------------------------------------------------

 ---
 ZnH
 ---
 Symbolic Z-matrix:
 Charge =  0 Multiplicity = 2

                         Standard orientation:
 ---------------------------------------------------------------------
 Center     Atomic      Atomic             Coordinates (Angstroms)
 Number     Number       Type             X           Y           Z
 ---------------------------------------------------------------------
      1         30           0        0.000000    0.000000    0.048387
      2          1           0        0.000000    0.000000   -1.451613
 ---------------------------------------------------------------------

 SCF Done:  E(ROHF) =  -225.800334446     A.U. after   19 cycles
 E2 =    -0.1114711600D+01 EUMP2 =    -0.22691504604629D+03
 CCSD(T)
 CCSD(T)= -0.22686343486D+03

 The electronic state is 2-SG.
 Alpha  occ. eigenvalues --   -5.87698  -3.95604  -3.95604  -3.95520  -0.80185
 Alpha  occ. eigenvalues --   -0.79949  -0.79949  -0.79491  -0.79491  -0.46671
 Alpha  occ. eigenvalues --   -0.27543
 Alpha virt. eigenvalues --    0.01914   0.01914   0.02313   0.03292   0.06327
 Alpha virt. eigenvalues --    0.06327   0.06842   0.11910   0.13743   0.15339
 Alpha virt. eigenvalues --    0.15339   0.15465   0.15465   0.18468   0.20900

 Mulliken charges and spin densities:
               1          2
     1  Zn   0.261918   0.929254
     2  H   -0.261918   0.070746
 Sum of Mulliken charges =  -0.00000   1.00000

 Dipole moment (field-independent basis, Debye):
    X=              0.0000    Y=              0.0000    Z=              0.4900  Tot=              0.4900
 Quadrupole moment (field-independent basis, Debye-Ang):
   XX=            -14.5542   YY=            -14.5542   ZZ=            -20.9709
   XY=              0.0000   XZ=              0.0000   YZ=              0.0000

 \\#P ROCCSD(T)=(MaxCyc=150, Full)/Gen SCF=(maxcycle=400, vshift=200) P
 Normal termination of Gaussian 16 at Mon Apr 30 08:40:52 2018.
