 Gaussian 16, Revision A.03,
 Gaussian 16:  ES64L-G16RevA.03 25-Dec-2016

 ----------------------------------------------------------------------
 #P ROCCSD(T)=(MaxCyc=150, Full)/Gen SCF=(maxcycle=400, vshift=200) Pse
 udo=Read Integral(NoXCTest) Pop=Regular MaxDisk=500GB Guess=Read IOp(5
 /15=2)
 ----------------------------------------------------------------------

 ---
 ZnH
 ---
 Symbolic Z-matrix:
 Charge =  0 Multiplicity = 2

                         Standard orientation:
 ---------------------------------------------------------------------
 Center     Atomic      Atomic             Coordinates (Angstroms)
 Number     Number       Type             X           Y           Z
 ---------------------------------------------------------------------
      1         30           0        0.000000    0.000000    0.048387
      2          1           0        0.000000    0.000000   -1.451613
 ---------------------------------------------------------------------

 SCF Done:  E(ROHF) =  -225.800222192     A.U. after   17 cycles
 E2 =    -0.1088218290D+01 EUMP2 =    -0.22688844048194D+03
 CCSD(T)
 CCSD(T)= -0.22683879305D+03

 The electronic state is 2-SG.
 Alpha  occ. eigenvalues --   -5.87699  -3.95605  -3.95605  -3.95521  -0.80186
 Alpha  occ. eigenvalues --   -0.79950  -0.79950  -0.79492  -0.79492  -0.46671
 Alpha  occ. eigenvalues --   -0.27542
 Alpha virt. eigenvalues --    0.01976   0.01976   0.02706   0.03611   0.06748
 Alpha virt. eigenvalues --    0.06748   0.07883   0.14225   0.17239   0.17909
 Alpha virt. eigenvalues --    0.17909   0.18132   0.18132   0.21311   0.23374

 Mulliken charges and spin densities:
               1          2
     1  Zn   0.295432   0.931125
     2  H   -0.295432   0.068875
 Sum of Mulliken charges =  -0.00000   1.00000

 Dipole moment (field-independent basis, Debye):
    X=              0.0000    Y=              0.0000    Z=              0.4898  Tot=              0.4898
 Quadrupole moment (field-independent basis, Debye-Ang):
   XX=            -14.5551   YY=            -14.5551   ZZ=            -20.9725
   XY=              0.0000   XZ=              0.0000   YZ=              0.0000

 \\#P ROCCSD(T)=(MaxCyc=150, Full)/Gen SCF=(maxcycle=400, vshift=200) P
 CCSD(T)=-226.838793\RMSD=9.164e-09\PG=C*V [C*(H1Zn1)]\\@
 Normal termination of Gaussian 16 at Sat Apr 21 11:54:55 2018.
