 Gaussian 16, Revision A.03,
 Gaussian 16:  ES64L-G16RevA.03 25-Dec-2016

 ----------------------------------------------------------------------
 #P ROCCSD(T)=(maxcyc=150, Full, SaveAmplitudes, ReadAmplitudes)/Gen 5d
  7f SCF=(maxcycles=300) Integral(NoXCTest) MaxDisk=500GB Pop=Regular P
 seudo=Read Guess=Read
 ----------------------------------------------------------------------

 ---
 CrO
 ---
 Symbolic Z-matrix:
 Charge =  0 Multiplicity = 5

                         Standard orientation:
 ---------------------------------------------------------------------
 Center     Atomic      Atomic             Coordinates (Angstroms)
 Number     Number       Type             X           Y           Z
 ---------------------------------------------------------------------
      1         24           0        0.000000    0.000000    0.475000
      2          8           0        0.000000    0.000000   -1.425000
 ---------------------------------------------------------------------

 SCF Done:  E(ROHF) =  -101.815065492     A.U. after   27 cycles
 E2 =    -0.8832909707D+00 EUMP2 =    -0.10269835646251D+03
 CCSD(T)
 CCSD(T)= -0.10275253157D+03

 Unable to determine electronic state:  an orbital has unidentified symmetry.
 Alpha  occ. eigenvalues --   -3.78499  -2.53667  -2.48617  -2.47846  -1.07716
 Alpha  occ. eigenvalues --   -0.59153  -0.56861  -0.56696  -0.54005  -0.33256
 Alpha  occ. eigenvalues --   -0.32750  -0.31897
 Alpha virt. eigenvalues --   -0.05283   0.00421   0.00999   0.01142   0.03065
 Alpha virt. eigenvalues --    0.04258   0.05141   0.05141   0.05412   0.06124
 Alpha virt. eigenvalues --    0.06162   0.06361   0.10167   0.11227   0.12070

 Mulliken charges and spin densities:
               1          2
     1  Cr   1.084783   3.965579
     2  O   -1.084783   0.034421
 Sum of Mulliken charges =  -0.00000   4.00000

 Dipole moment (field-independent basis, Debye):
    X=              0.0000    Y=              0.0000    Z=             10.2021  Tot=             10.2021
 Quadrupole moment (field-independent basis, Debye-Ang):
   XX=            -19.7625   YY=            -19.0795   ZZ=            -24.9997
   XY=              0.0000   XZ=              0.0000   YZ=              0.0000

 \\#P ROCCSD(T)=(maxcyc=150, Full, SaveAmplitudes, ReadAmplitudes)/Gen
 MP2-0=-102.6983565\CCSD=-102.6963314\CCSD(T)=-102.7525316\RMSD=5.316e-
 Normal termination of Gaussian 16 at Tue Mar 13 19:43:57 2018.
