 Gaussian 16, Revision A.03,
 Gaussian 16:  ES64L-G16RevA.03 25-Dec-2016

 ----------------------------------------------------------------------
 #P ROCCSD(T)=(MaxCyc=150, FrzINGC)/Gen SCF=(maxcycle=400, vshift=200)
 Integral(DKHSO, NoXCTest) Pop=Regular MaxDisk=500GB Guess=Read IOp(5/1
 5=2)
 ----------------------------------------------------------------------

 ---
 CoH
 ---
 Symbolic Z-matrix:
 Charge =  0 Multiplicity = 3

                         Standard orientation:
 ---------------------------------------------------------------------
 Center     Atomic      Atomic             Coordinates (Angstroms)
 Number     Number       Type             X           Y           Z
 ---------------------------------------------------------------------
      1         27           0        0.000000    0.000000    0.053571
      2          1           0        0.000000    0.000000   -1.446429
 ---------------------------------------------------------------------

 SCF Done:  E(ROHF) =  -1392.35634439     A.U. after    2 cycles
 E2 =    -0.8585611284D+00 EUMP2 =    -0.13932149055194D+04
 CCSD(T)
 CCSD(T)= -0.13931808628D+04

 Unable to determine electronic state:  partially filled degenerate orbitals.
 Alpha  occ. eigenvalues -- -285.58581 -35.27795 -30.04864 -30.04864 -30.04570
 Alpha  occ. eigenvalues --   -4.49381  -2.93062  -2.93041  -2.93041  -0.48973
 Alpha  occ. eigenvalues --   -0.48770  -0.44092  -0.43894  -0.43894  -0.32755
 Alpha virt. eigenvalues --    0.00092   0.02686   0.02686   0.03318   0.05061
 Alpha virt. eigenvalues --    0.09445   0.09445   0.10203   0.11331   0.11374
 Alpha virt. eigenvalues --    0.11533   0.11559   0.11559   0.18957   0.25341

 Mulliken charges and spin densities:
               1          2
     1  Co   0.361862   1.978258
     2  H   -0.361862   0.021742
 Sum of Mulliken charges =  -0.00000   2.00000

 Dipole moment (field-independent basis, Debye):
    X=              0.0000    Y=              0.0000    Z=              4.2820  Tot=              4.2820
 Quadrupole moment (field-independent basis, Debye-Ang):
   XX=            -14.1533   YY=            -14.1533   ZZ=            -17.8791
   XY=              0.0000   XZ=              0.0000   YZ=              0.0000

 \#P ROCCSD(T)=(MaxCyc=150, FrzINGC)/Gen SCF=(maxcycle=400, vshift=200)
 Normal termination of Gaussian 16 at Sat Apr 21 22:23:05 2018.
