 Gaussian 16, Revision A.03,
 Gaussian 16:  ES64L-G16RevA.03 25-Dec-2016

 ----------------------------------------------------------------------
 #P ROCCSD(T)=(maxcyc=150, Full, SaveAmplitudes, ReadAmplitudes)/Gen 5d
  7f SCF=(maxcycles=300, VShift=400) Integral(NoXCTest) MaxDisk=500GB P
 op=Full Pseudo=Read Guess=Read IOp(5/15=2)
 ----------------------------------------------------------------------

 ---
 ScH
 ---
 Symbolic Z-matrix:
 Charge =  0 Multiplicity = 1

                         Standard orientation:
 ---------------------------------------------------------------------
 Center     Atomic      Atomic             Coordinates (Angstroms)
 Number     Number       Type             X           Y           Z
 ---------------------------------------------------------------------
      1         21           0        0.000000    0.000000    0.059091
      2          1           0        0.000000    0.000000   -1.240909
 ---------------------------------------------------------------------

 SCF Done:  E(ROHF) =  -46.6048852141     A.U. after   29 cycles
 E2 =    -0.4158158279D+00 EUMP2 =    -0.47020701042023D+02
 CCSD(T)
 CCSD(T)= -0.47061139759D+02

 The electronic state is 1-SG.
 Alpha  occ. eigenvalues --   -2.62351  -1.63818  -1.60923  -1.60923  -0.46221
 Alpha  occ. eigenvalues --   -0.21655
 Alpha virt. eigenvalues --    0.01345   0.01345   0.01543   0.02202   0.03481
 Alpha virt. eigenvalues --    0.03912   0.03912   0.03934   0.03934   0.04870
 Alpha virt. eigenvalues --    0.04870   0.04955   0.09276   0.10280   0.10280

 Mulliken charges and spin densities:
               1          2
     1  Sc   0.476286   0.000000
     2  H   -0.476286   0.000000
 Sum of Mulliken charges =  -0.00000   0.00000

 Dipole moment (field-independent basis, Debye):
    X=              0.0000    Y=              0.0000    Z=              0.6651  Tot=              0.6651
 Quadrupole moment (field-independent basis, Debye-Ang):
   XX=            -23.6135   YY=            -23.6135   ZZ=            -23.1859
   XY=              0.0000   XZ=              0.0000   YZ=              0.0000

 P ROCCSD(T)=(maxcyc=150, Full, SaveAmplitudes, ReadAmplitudes)/Gen 5d
 41013\CCSD=-47.0435192\CCSD(T)=-47.0611398\RMSD=7.574e-09\PG=C*V [C*(H
 Normal termination of Gaussian 16 at Thu Apr 19 07:42:56 2018.
