 Gaussian 16, Revision A.03,
 Gaussian 16:  ES64L-G16RevA.03 25-Dec-2016

 ----------------------------------------------------------------------
 #P ROCCSD(T)=(maxcyc=150, Full)/Gen 5d 7f SCF=(maxcycles=300, NoVarAcc
 , VShift=200) MaxDisk=100GB Pop=Regular Pseudo=Read Guess=Read
 ----------------------------------------------------------------------

 --
 Mn
 --
 Symbolic Z-matrix:
 Charge =  0 Multiplicity = 6

                         Standard orientation:
 ---------------------------------------------------------------------
 Center     Atomic      Atomic             Coordinates (Angstroms)
 Number     Number       Type             X           Y           Z
 ---------------------------------------------------------------------
      1         25           0        0.000000    0.000000    0.000000
 ---------------------------------------------------------------------

 SCF Done:  E(ROHF) =  -103.689750051     A.U. after   20 cycles
 E2 =    -0.5704583955D+00 EUMP2 =    -0.10426020844662D+03
 CCSD(T)
 CCSD(T)= -0.10428088035D+03

 The electronic state is 6-A1G.
 Alpha  occ. eigenvalues --   -4.16390  -2.75310  -2.75310  -2.75310  -0.63538
 Alpha  occ. eigenvalues --   -0.63538  -0.63538  -0.63538  -0.63538  -0.26871
 Alpha virt. eigenvalues --    0.01877   0.01877   0.01877   0.02659   0.06652
 Alpha virt. eigenvalues --    0.06652   0.06652   0.08968   0.08968   0.08968
 Alpha virt. eigenvalues --    0.08968   0.08968   0.13887   0.24355   0.24355

 Mulliken charges and spin densities:
               1          2
     1  Mn  -0.000000   5.000000
 Sum of Mulliken charges =  -0.00000   5.00000

 Dipole moment (field-independent basis, Debye):
    X=              0.0000    Y=              0.0000    Z=              0.0000  Tot=              0.0000
 Quadrupole moment (field-independent basis, Debye-Ang):
   XX=            -18.6963   YY=            -18.6963   ZZ=            -18.6963
   XY=              0.0000   XZ=             -0.0000   YZ=             -0.0000

 1\1\GINC-C442-121\SP\ROCCSD(T)-Full\Gen\Mn1(6)\AANNABE\12-Mar-2018\0\\
 #P ROCCSD(T)=(maxcyc=150, Full)/Gen 5d 7f SCF=(maxcycles=300, NoVarAcc
 , VShift=200) MaxDisk=100GB Pop=Regular Pseudo=Read Guess=Read\\Mn\\0,
 6\Mn,0,0.,0.,0.\\Version=ES64L-G16RevA.03\State=6-A1G\HF=-103.6897501\
 MP2=-104.2602084\MP3=-104.2599983\PUHF=-103.6897501\PMP2-0=-104.260208
 4\MP4SDQ=-104.2634724\CCSD=-104.2634385\CCSD(T)=-104.2808804\RMSD=8.83
 1e-09\PG=OH [O(Mn1)]\\@

 Normal termination of Gaussian 16 at Mon Mar 12 13:47:50 2018.
