 Gaussian 16, Revision A.03,
 Gaussian 16:  ES64L-G16RevA.03 25-Dec-2016

 ----------------------------------------------------------------------
 #P ROCCSD(T)=(maxcyc=150, Full, SaveAmplitudes, ReadAmplitudes)/Gen 5d
  7f SCF=(maxcycles=300) Integral(NoXCTest, DKHSO) MaxDisk=500GB Pop=Re
 gular Guess=Read
 ----------------------------------------------------------------------

 ---
 ScO
 ---
 Symbolic Z-matrix:
 Charge =  0 Multiplicity = 2

                         Standard orientation:
 ---------------------------------------------------------------------
 Center     Atomic      Atomic             Coordinates (Angstroms)
 Number     Number       Type             X           Y           Z
 ---------------------------------------------------------------------
      1         21           0        0.000000    0.000000    0.386207
      2          8           0        0.000000    0.000000   -1.013793
 ---------------------------------------------------------------------

 SCF Done:  E(ROHF) =  -838.204216774     A.U. after   17 cycles
 E2 =    -0.1122982378D+01 EUMP2 =    -0.83932719915160D+03
 CCSD(T)
 CCSD(T)= -0.83934474544D+03

 The electronic state is 2-SG.
 Alpha  occ. eigenvalues -- -166.76913 -20.52300 -19.20668 -15.63024 -15.63024
 Alpha  occ. eigenvalues --  -15.62911  -2.57559  -1.70872  -1.54641  -1.54641
 Alpha  occ. eigenvalues --   -1.08112  -0.52421  -0.52421  -0.46057  -0.21038
 Alpha virt. eigenvalues --    0.00812   0.00812   0.02023   0.02044   0.02789
 Alpha virt. eigenvalues --    0.02789   0.02942   0.02942   0.02975   0.03936
 Alpha virt. eigenvalues --    0.03936   0.06231   0.07901   0.07901   0.08906

 Mulliken charges and spin densities:
               1          2
     1  Sc   1.097275   1.000368
     2  O   -1.097275  -0.000368
 Sum of Mulliken charges =  -0.00000   1.00000

 Dipole moment (field-independent basis, Debye):
    X=              0.0000    Y=             -0.0000    Z=              1.5284  Tot=              1.5284
 Quadrupole moment (field-independent basis, Debye-Ang):
   XX=            -22.7573   YY=            -22.7573   ZZ=            -30.7931
   XY=              0.0000   XZ=              0.0000   YZ=             -0.0000

 \\#P ROCCSD(T)=(maxcyc=150, Full, SaveAmplitudes, ReadAmplitudes)/Gen
 2168\PMP2-0=-839.3271992\CCSD=-839.3095483\CCSD(T)=-839.3447454\RMSD=3
 Normal termination of Gaussian 16 at Tue Feb 20 23:15:27 2018.
