 Gaussian 16, Revision A.03,
 Gaussian 16:  ES64L-G16RevA.03 25-Dec-2016

 ----------------------------------------------------------------------
 #P ROCCSD(T)=(maxcyc=150, Window=(6,0), ReadAmplitudes)/Gen 5d 7f SCF=
 (maxcycles=300) Integral(NoXCTest, DKHSO) MaxDisk=500GB Pop=Regular Gu
 ess=Read
 ----------------------------------------------------------------------

 ---
 CrH
 ---
 Symbolic Z-matrix:
 Charge =  0 Multiplicity = 6

                         Standard orientation:
 ---------------------------------------------------------------------
 Center     Atomic      Atomic             Coordinates (Angstroms)
 Number     Number       Type             X           Y           Z
 ---------------------------------------------------------------------
      1         24           0        0.000000    0.000000    0.072000
      2          1           0        0.000000    0.000000   -1.728000
 ---------------------------------------------------------------------

 SCF Done:  E(ROHF) =  -1050.20459990     A.U. after   20 cycles
 E2 =    -0.5470008677D+00 EUMP2 =    -0.10507516007692D+04
 CCSD(T)
 CCSD(T)= -0.10507940191D+04

 The electronic state is 6-SG.
 Alpha  occ. eigenvalues -- -222.21500 -26.80803 -22.44208 -22.44208 -22.44185
 Alpha  occ. eigenvalues --   -3.68049  -2.43508  -2.43508  -2.39319  -0.55631
 Alpha  occ. eigenvalues --   -0.55631  -0.52347  -0.52347  -0.39727  -0.26259
 Alpha virt. eigenvalues --    0.01142   0.01142   0.01841   0.02286   0.04357
 Alpha virt. eigenvalues --    0.04732   0.04732   0.04921   0.04921   0.05224
 Alpha virt. eigenvalues --    0.05224   0.06415   0.08564   0.11324   0.15170

 Mulliken charges and spin densities:
               1          2
     1  Cr   0.358237   4.971928
     2  H   -0.358237   0.028072
 Sum of Mulliken charges =  -0.00000   5.00000

 Dipole moment (field-independent basis, Debye):
    X=             -0.0000    Y=             -0.0000    Z=              2.3707  Tot=              2.3707
 Quadrupole moment (field-independent basis, Debye-Ang):
   XX=            -17.3928   YY=            -17.3928   ZZ=            -25.4875
   XY=              0.0000   XZ=             -0.0000   YZ=             -0.0000

 1\1\GINC-C505-052\SP\ROCCSD(T)-RW\Gen\Cr1H1(6)\AANNABE\26-Feb-2018\0\\
 #P ROCCSD(T)=(maxcyc=150, Window=(6,0), ReadAmplitudes)/Gen 5d 7f SCF=
 (maxcycles=300) Integral(NoXCTest, DKHSO) MaxDisk=500GB Pop=Regular Gu
 ess=Read\\CrH\\0,6\Cr,0,0.,0.,0.\H,0,0.,0.,1.8\\Version=ES64L-G16RevA.
 03\State=6-SG\HF=-1050.2045999\MP2=-1050.7516008\PUHF=-1050.2045999\PM
 P2-0=-1050.7516008\CCSD=-1050.7787883\CCSD(T)=-1050.7940191\RMSD=2.193
 e-09\PG=C*V [C*(H1Cr1)]\\@

 Normal termination of Gaussian 16 at Mon Feb 26 04:09:45 2018.
