 Gaussian 16, Revision A.03,
 Gaussian 16:  ES64L-G16RevA.03 25-Dec-2016

 ----------------------------------------------------------------------
 #P ROCCSD(T)=(maxcyc=150, Full, SaveAmplitudes, ReadAmplitudes)/Gen 5d
  7f SCF=(maxcycles=300) Integral(NoXCTest) MaxDisk=500GB Pop=Regular P
 seudo=Read Guess=Read IOp(5/15=2)
 ----------------------------------------------------------------------

 ---
 ScO
 ---
 Symbolic Z-matrix:
 Charge =  0 Multiplicity = 2

                         Standard orientation:
 ---------------------------------------------------------------------
 Center     Atomic      Atomic             Coordinates (Angstroms)
 Number     Number       Type             X           Y           Z
 ---------------------------------------------------------------------
      1         21           0        0.000000    0.000000    0.386207
      2          8           0        0.000000    0.000000   -1.013793
 ---------------------------------------------------------------------

 SCF Done:  E(ROHF) =  -61.9790216244     A.U. after   18 cycles
 E2 =    -0.6752781162D+00 EUMP2 =    -0.62654299740552D+02
 CCSD(T)
 CCSD(T)= -0.62681649420D+02

 The electronic state is 2-SG.
 Alpha  occ. eigenvalues --   -2.64147  -1.71012  -1.54329  -1.54329  -1.09356
 Alpha  occ. eigenvalues --   -0.52383  -0.52383  -0.45898  -0.21064
 Alpha virt. eigenvalues --    0.00834   0.00834   0.02201   0.02228   0.03748
 Alpha virt. eigenvalues --    0.03748   0.03836   0.03836   0.03995   0.04551
 Alpha virt. eigenvalues --    0.04551   0.07103   0.10420   0.10420   0.10972

 Mulliken charges and spin densities:
               1          2
     1  Sc   1.265037   0.988315
     2  O   -1.265037   0.011685
 Sum of Mulliken charges =  -0.00000   1.00000

 Dipole moment (field-independent basis, Debye):
    X=              0.0000    Y=              0.0000    Z=              1.5405  Tot=              1.5405
 Quadrupole moment (field-independent basis, Debye-Ang):
   XX=            -22.2555   YY=            -22.2555   ZZ=            -30.3254
   XY=              0.0000   XZ=              0.0000   YZ=              0.0000

 \\#P ROCCSD(T)=(maxcyc=150, Full, SaveAmplitudes, ReadAmplitudes)/Gen
 56\CCSD=-62.6492522\CCSD(T)=-62.6816494\RMSD=2.387e-09\PG=C*V [C*(O1Sc
 Normal termination of Gaussian 16 at Tue Feb 20 23:52:41 2018.
