 Gaussian 16, Revision A.03,
 Gaussian 16:  ES64L-G16RevA.03 25-Dec-2016

 ----------------------------------------------------------------------
 #P ROCCSD(T)=(maxcyc=150, Window=(7,0), SaveAmplitudes, ReadAmplitudes
 )/Gen 5d 7f SCF=(maxcycles=300) Integral(NoXCTest, DKHSO) MaxDisk=500G
 B Pop=Regular Guess=Read IOp(5/15=2)
 ----------------------------------------------------------------------

 ---
 CrO
 ---
 Symbolic Z-matrix:
 Charge =  0 Multiplicity = 5

                         Standard orientation:
 ---------------------------------------------------------------------
 Center     Atomic      Atomic             Coordinates (Angstroms)
 Number     Number       Type             X           Y           Z
 ---------------------------------------------------------------------
      1         24           0        0.000000    0.000000    0.425000
      2          8           0        0.000000    0.000000   -1.275000
 ---------------------------------------------------------------------

 SCF Done:  E(ROHF) =  -1124.49674583     A.U. after   44 cycles
 E2 =    -0.8488064298D+00 EUMP2 =    -0.11253455522641D+04
 CCSD(T)
 CCSD(T)= -0.11253815622D+04

 Unable to determine electronic state:  an orbital has unidentified symmetry.
 Alpha  occ. eigenvalues -- -222.23818 -26.83187 -22.46817 -22.46687 -22.46031
 Alpha  occ. eigenvalues --  -20.45467  -3.68410  -2.45144  -2.41158  -2.39990
 Alpha  occ. eigenvalues --   -1.10904  -0.56136  -0.55848  -0.54191  -0.49249
 Alpha  occ. eigenvalues --   -0.36862  -0.34092  -0.32852
 Alpha virt. eigenvalues --   -0.03254   0.00874   0.01577   0.02258   0.03722
 Alpha virt. eigenvalues --    0.05060   0.06355   0.07514   0.07530   0.07702
 Alpha virt. eigenvalues --    0.08302   0.08767   0.13308   0.14661   0.15617

 Mulliken charges and spin densities:
               1          2
     1  Cr   1.167145   3.901909
     2  O   -1.167145   0.098091
 Sum of Mulliken charges =  -0.00000   4.00000

 Dipole moment (field-independent basis, Debye):
    X=             -0.0000    Y=             -0.0000    Z=              8.7580  Tot=              8.7580
 Quadrupole moment (field-independent basis, Debye-Ang):
   XX=            -20.1880   YY=            -19.1474   ZZ=            -23.4997
   XY=             -0.0000   XZ=             -0.0000   YZ=             -0.0000

 1\1\GINC-C484-074\SP\ROCCSD(T)-RW\Gen\Cr1O1(5)\AANNABE\14-Mar-2018\0\\
 #P ROCCSD(T)=(maxcyc=150, Window=(7,0), SaveAmplitudes, ReadAmplitudes
 )/Gen 5d 7f SCF=(maxcycles=300) Integral(NoXCTest, DKHSO) MaxDisk=500G
 B Pop=Regular Guess=Read IOp(5/15=2)\\CrO\\0,5\Cr,0,0.,0.,0.\O,0,0.,0.
 ,1.7\\Version=ES64L-G16RevA.03\HF=-1124.4967458\MP2=-1125.3455523\MP3=
 -1125.2867365\PUHF=-1124.4967458\PMP2-0=-1125.3455523\MP4SDQ=-1125.350
 1184\CCSD=-1125.332651\CCSD(T)=-1125.3815622\RMSD=9.418e-09\PG=C*V [C*
 (O1Cr1)]\\@

 Normal termination of Gaussian 16 at Wed Mar 14 14:27:34 2018.
