 Gaussian 16, Revision A.03,
 Gaussian 16:  ES64L-G16RevA.03 25-Dec-2016

 ----------------------------------------------------------------------
 #P ROCCSD(T)=(MaxCyc=150, Full)/Gen SCF=(maxcycle=400, vshift=200) Pse
 udo=Read Integral(NoXCTest) Pop=Regular MaxDisk=500GB Guess=Read IOp(5
 /15=2)
 ----------------------------------------------------------------------

 ---
 CoH
 ---
 Symbolic Z-matrix:
 Charge =  0 Multiplicity = 3

                         Standard orientation:
 ---------------------------------------------------------------------
 Center     Atomic      Atomic             Coordinates (Angstroms)
 Number     Number       Type             X           Y           Z
 ---------------------------------------------------------------------
      1         27           0        0.000000    0.000000    0.053571
      2          1           0        0.000000    0.000000   -1.446429
 ---------------------------------------------------------------------

 SCF Done:  E(ROHF) =  -145.415497260     A.U. after   33 cycles
 E2 =    -0.9067087883D+00 EUMP2 =    -0.14632220604880D+03
 CCSD(T)
 CCSD(T)= -0.14629883961D+03

 Unable to determine electronic state:  partially filled degenerate orbitals.
 Alpha  occ. eigenvalues --   -4.58446  -2.94246  -2.94229  -2.94229  -0.49248
 Alpha  occ. eigenvalues --   -0.49060  -0.44382  -0.44203  -0.44203  -0.32837
 Alpha virt. eigenvalues --    0.00081   0.02444   0.02444   0.03007   0.04803
 Alpha virt. eigenvalues --    0.06993   0.07344   0.07358   0.07560   0.07560
 Alpha virt. eigenvalues --    0.08679   0.08679   0.10012   0.18584   0.20073

 Mulliken charges and spin densities:
               1          2
     1  Co   0.349442   1.992364
     2  H   -0.349442   0.007636
 Sum of Mulliken charges =  -0.00000   2.00000

 Dipole moment (field-independent basis, Debye):
    X=              0.0000    Y=              0.0000    Z=              4.2648  Tot=              4.2648
 Quadrupole moment (field-independent basis, Debye-Ang):
   XX=            -13.8262   YY=            -13.8262   ZZ=            -17.5508
   XY=              0.0000   XZ=              0.0000   YZ=              0.0000

 \\#P ROCCSD(T)=(MaxCyc=150, Full)/Gen SCF=(maxcycle=400, vshift=200) P
 PMP2-0=-146.322206\MP4SDQ=-146.2928348\CCSD=-146.2666829\CCSD(T)=-146.
 Normal termination of Gaussian 16 at Sun Apr 22 03:07:18 2018.
