 Gaussian 16, Revision A.03,
 Gaussian 16:  ES64L-G16RevA.03 25-Dec-2016

 ----------------------------------------------------------------------
 #P ROCCSD(T)=(MaxCyc=150, Full)/Gen SCF=(maxcycle=400, vshift=200) Pse
 udo=Read Integral(NoXCTest) Pop=Regular MaxDisk=500GB Guess=Read IOp(5
 /15=2)
 ----------------------------------------------------------------------

 ---
 CoH
 ---
 Symbolic Z-matrix:
 Charge =  0 Multiplicity = 3

                         Standard orientation:
 ---------------------------------------------------------------------
 Center     Atomic      Atomic             Coordinates (Angstroms)
 Number     Number       Type             X           Y           Z
 ---------------------------------------------------------------------
      1         27           0        0.000000    0.000000    0.053571
      2          1           0        0.000000    0.000000   -1.446429
 ---------------------------------------------------------------------

 SCF Done:  E(ROHF) =  -145.415697757     A.U. after   27 cycles
 E2 =    -0.9266950626D+00 EUMP2 =    -0.14634239281960D+03
 CCSD(T)
 CCSD(T)= -0.14631678646D+03

 Unable to determine electronic state:  partially filled degenerate orbitals.
 Alpha  occ. eigenvalues --   -4.58446  -2.94246  -2.94228  -2.94228  -0.49245
 Alpha  occ. eigenvalues --   -0.49057  -0.44386  -0.44208  -0.44208  -0.32837
 Alpha virt. eigenvalues --    0.00027   0.02364   0.02364   0.02700   0.04150
 Alpha virt. eigenvalues --    0.06431   0.06637   0.06647   0.06881   0.06881
 Alpha virt. eigenvalues --    0.08282   0.08282   0.08728   0.14629   0.18503

 Mulliken charges and spin densities:
               1          2
     1  Co   0.330607   1.986728
     2  H   -0.330607   0.013272
 Sum of Mulliken charges =  -0.00000   2.00000

 Dipole moment (field-independent basis, Debye):
    X=              0.0000    Y=              0.0000    Z=              4.2643  Tot=              4.2643
 Quadrupole moment (field-independent basis, Debye-Ang):
   XX=            -13.8256   YY=            -13.8256   ZZ=            -17.5512
   XY=              0.0000   XZ=              0.0000   YZ=              0.0000

 \\#P ROCCSD(T)=(MaxCyc=150, Full)/Gen SCF=(maxcycle=400, vshift=200) P
 \PMP2-0=-146.3423928\MP4SDQ=-146.3098513\CCSD=-146.2840396\CCSD(T)=-14
 Normal termination of Gaussian 16 at Sat Apr 28 23:52:58 2018.
