 Gaussian 16, Revision A.03,
 Gaussian 16:  ES64L-G16RevA.03 25-Dec-2016

 ----------------------------------------------------------------------
 #P ROCCSD(T)=(MaxCyc=150, Full)/Gen SCF=(maxcycle=400, vshift=200) Pse
 udo=Read Integral(NoXCTest) Pop=Regular MaxDisk=500GB Guess=Read IOp(5
 /15=2)
 ----------------------------------------------------------------------

 ---
 CoH
 ---
 Symbolic Z-matrix:
 Charge =  0 Multiplicity = 3

                         Standard orientation:
 ---------------------------------------------------------------------
 Center     Atomic      Atomic             Coordinates (Angstroms)
 Number     Number       Type             X           Y           Z
 ---------------------------------------------------------------------
      1         27           0        0.000000    0.000000    0.053571
      2          1           0        0.000000    0.000000   -1.446429
 ---------------------------------------------------------------------

 SCF Done:  E(ROHF) =  -145.414142297     A.U. after   53 cycles
 E2 =    -0.8655359686D+00 EUMP2 =    -0.14627967826571D+03
 CCSD(T)
 CCSD(T)= -0.14625793614D+03

 Unable to determine electronic state:  partially filled degenerate orbitals.
 Alpha  occ. eigenvalues --   -4.58445  -2.94253  -2.94236  -2.94236  -0.49246
 Alpha  occ. eigenvalues --   -0.49059  -0.44378  -0.44196  -0.44196  -0.32837
 Alpha virt. eigenvalues --    0.00109   0.02696   0.02696   0.03315   0.05073
 Alpha virt. eigenvalues --    0.09491   0.09491   0.10197   0.11332   0.11374
 Alpha virt. eigenvalues --    0.11527   0.11565   0.11565   0.18939   0.25348

 Mulliken charges and spin densities:
               1          2
     1  Co   0.358859   1.979114
     2  H   -0.358859   0.020886
 Sum of Mulliken charges =  -0.00000   2.00000

 Dipole moment (field-independent basis, Debye):
    X=              0.0000    Y=              0.0000    Z=              4.2687  Tot=              4.2687
 Quadrupole moment (field-independent basis, Debye-Ang):
   XX=            -13.8378   YY=            -13.8378   ZZ=            -17.5469
   XY=              0.0000   XZ=              0.0000   YZ=              0.0000

 \\#P ROCCSD(T)=(MaxCyc=150, Full)/Gen SCF=(maxcycle=400, vshift=200) P
 \PMP2-0=-146.2796783\MP4SDQ=-146.2539986\CCSD=-146.2273306\CCSD(T)=-14
 Normal termination of Gaussian 16 at Sun Apr 22 02:24:28 2018.
