 Gaussian 16, Revision A.03,
 Gaussian 16:  ES64L-G16RevA.03 25-Dec-2016

 ----------------------------------------------------------------------
 #P ROCCSD(T)=(maxcyc=150, Full, SaveAmplitudes, ReadAmplitudes)/Gen 5d
  7f SCF=(maxcycles=300, VShift=400) Integral(NoXCTest) MaxDisk=500GB P
 op=Full Pseudo=Read Guess=Read IOp(5/15=2)
 ----------------------------------------------------------------------

 ---
 CrO
 ---
 Symbolic Z-matrix:
 Charge =  0 Multiplicity = 5

                         Standard orientation:
 ---------------------------------------------------------------------
 Center     Atomic      Atomic             Coordinates (Angstroms)
 Number     Number       Type             X           Y           Z
 ---------------------------------------------------------------------
      1         24           0        0.000000    0.000000    0.450000
      2          8           0        0.000000    0.000000   -1.350000
 ---------------------------------------------------------------------

 SCF Done:  E(ROHF) =  -101.830795908     A.U. after   87 cycles
 E2 =    -0.8490394100D+00 EUMP2 =    -0.10267983531772D+03
 CCSD(T)
 CCSD(T)= -0.10273357877D+03

 Unable to determine electronic state:  an orbital has unidentified symmetry.
 Alpha  occ. eigenvalues --   -3.77037  -2.51995  -2.47086  -2.46219  -1.08865
 Alpha  occ. eigenvalues --   -0.57321  -0.55867  -0.55183  -0.52028  -0.34152
 Alpha  occ. eigenvalues --   -0.32796  -0.32637
 Alpha virt. eigenvalues --   -0.04650   0.00699   0.01360   0.01765   0.03726
 Alpha virt. eigenvalues --    0.04972   0.06199   0.07409   0.07416   0.07632
 Alpha virt. eigenvalues --    0.08347   0.08730   0.12965   0.13850   0.15554

 Mulliken charges and spin densities:
               1          2
     1  Cr   1.179114   3.940450
     2  O   -1.179114   0.059550
 Sum of Mulliken charges =  -0.00000   4.00000

 Dipole moment (field-independent basis, Debye):
    X=              0.0000    Y=              0.0000    Z=              9.8094  Tot=              9.8094
 Quadrupole moment (field-independent basis, Debye-Ang):
   XX=            -19.6413   YY=            -18.8035   ZZ=            -24.0898
   XY=              0.0000   XZ=              0.0000   YZ=              0.0000

 \\#P ROCCSD(T)=(maxcyc=150, Full, SaveAmplitudes, ReadAmplitudes)/Gen
 919597\CCSD=-102.681751\CCSD(T)=-102.7335788\RMSD=6.782e-09\PG=C*V [C*
 Normal termination of Gaussian 16 at Sun Mar 18 18:39:09 2018.
