 Gaussian 16, Revision A.03,
 Gaussian 16:  ES64L-G16RevA.03 25-Dec-2016

 ----------------------------------------------------------------------
 #P ROCCSD(T)=(maxcyc=150, Full, SaveAmplitudes, ReadAmplitudes)/Gen 5d
  7f SCF=(maxcycles=300) Integral(NoXCTest) MaxDisk=500GB Pop=Regular P
 seudo=Read Guess=Read
 ----------------------------------------------------------------------

 ---
 ScO
 ---
 Symbolic Z-matrix:
 Charge =  0 Multiplicity = 2

                         Standard orientation:
 ---------------------------------------------------------------------
 Center     Atomic      Atomic             Coordinates (Angstroms)
 Number     Number       Type             X           Y           Z
 ---------------------------------------------------------------------
      1         21           0        0.000000    0.000000    0.496552
      2          8           0        0.000000    0.000000   -1.303448
 ---------------------------------------------------------------------

 SCF Done:  E(ROHF) =  -62.0688651760     A.U. after   17 cycles
 E2 =    -0.7193655005D+00 EUMP2 =    -0.62788230676500D+02
 CCSD(T)
 CCSD(T)= -0.62815789419D+02

 The electronic state is 2-SG.
 Alpha  occ. eigenvalues --   -2.72469  -1.67462  -1.66384  -1.66384  -1.10862
 Alpha  occ. eigenvalues --   -0.41455  -0.38458  -0.38458  -0.26548
 Alpha virt. eigenvalues --   -0.00425  -0.00425   0.01045   0.01957   0.02662
 Alpha virt. eigenvalues --    0.02662   0.02784   0.02784   0.03231   0.03231
 Alpha virt. eigenvalues --    0.03608   0.04085   0.06146   0.06146   0.09080

 Mulliken charges and spin densities:
               1          2
     1  Sc   1.258231   0.984199
     2  O   -1.258231   0.015801
 Sum of Mulliken charges =  -0.00000   1.00000

 Dipole moment (field-independent basis, Debye):
    X=              0.0000    Y=              0.0000    Z=              5.8397  Tot=              5.8397
 Quadrupole moment (field-independent basis, Debye-Ang):
   XX=            -21.8372   YY=            -21.8372   ZZ=            -33.1187
   XY=              0.0000   XZ=              0.0000   YZ=              0.0000

 \\#P ROCCSD(T)=(maxcyc=150, Full, SaveAmplitudes, ReadAmplitudes)/Gen
 688652\PMP2-0=-62.7882307\CCSD=-62.7699454\CCSD(T)=-62.8157894\RMSD=1.
 Normal termination of Gaussian 16 at Wed Feb 21 06:34:44 2018.
