 Gaussian 16, Revision A.03,
 Gaussian 16:  ES64L-G16RevA.03 25-Dec-2016

 ----------------------------------------------------------------------
 #P ROCCSD(T)=(maxcyc=150, Full)/Gen 5d 7f SCF=(maxcycles=300) Integral
 (NoXCTest, DKHSO) MaxDisk=500GB Pop=Regular Guess=Read
 ----------------------------------------------------------------------

 -
 O
 -
 Symbolic Z-matrix:
 Charge =  0 Multiplicity = 3

                         Standard orientation:
 ---------------------------------------------------------------------
 Center     Atomic      Atomic             Coordinates (Angstroms)
 Number     Number       Type             X           Y           Z
 ---------------------------------------------------------------------
      1          8           0        0.000000    0.000000    0.000000
 ---------------------------------------------------------------------

 SCF Done:  E(ROHF) =  -74.8639211939     A.U. after    8 cycles
 E2 =    -0.2262421140D+00 EUMP2 =    -0.75090163307904D+02
 CCSD(T)
 CCSD(T)= -0.75109357359D+02

 Unable to determine electronic state:  an orbital has unidentified symmetry.
 Alpha  occ. eigenvalues --  -20.72117  -1.40662  -0.70246  -0.70246  -0.60629
 Alpha virt. eigenvalues --    0.13236   0.13236   0.13488   0.14001   0.46049
 Alpha virt. eigenvalues --    0.46049   0.47095   0.47095   0.47414   0.67603
 Alpha virt. eigenvalues --    0.67603   0.70998   0.85524   1.30864   1.30864

 Mulliken charges and spin densities:
               1          2
     1  O   -0.000000   2.000000
 Sum of Mulliken charges =  -0.00000   2.00000

 Dipole moment (field-independent basis, Debye):
    X=             -0.0000    Y=             -0.0000    Z=              0.0000  Tot=              0.0000
 Quadrupole moment (field-independent basis, Debye-Ang):
   XX=             -4.6126   YY=             -4.6126   ZZ=             -5.8480
   XY=              0.0000   XZ=             -0.0000   YZ=              0.0000

 P ROCCSD(T)=(maxcyc=150, Full)/Gen 5d 7f SCF=(maxcycles=300) Integral(
 .1049831\CCSD(T)=-75.1093574\RMSD=1.451e-09\PG=OH [O(O1)]\\@
 Normal termination of Gaussian 16 at Wed Feb 21 16:02:48 2018.
