 Gaussian 16, Revision A.03,
 Gaussian 16:  ES64L-G16RevA.03 25-Dec-2016

 ----------------------------------------------------------------------
 #P ROCCSD(T)=(MaxCyc=150, Full)/Gen SCF=(maxcycle=400, vshift=200) Pse
 udo=Read Integral(NoXCTest) Pop=Regular MaxDisk=500GB Guess=Read IOp(5
 /15=2)
 ----------------------------------------------------------------------

 ---
 CoH
 ---
 Symbolic Z-matrix:
 Charge =  0 Multiplicity = 3

                         Standard orientation:
 ---------------------------------------------------------------------
 Center     Atomic      Atomic             Coordinates (Angstroms)
 Number     Number       Type             X           Y           Z
 ---------------------------------------------------------------------
      1         27           0        0.000000    0.000000    0.042857
      2          1           0        0.000000    0.000000   -1.157143
 ---------------------------------------------------------------------

 SCF Done:  E(ROHF) =  -145.357088785     A.U. after   32 cycles
 E2 =    -0.9320423439D+00 EUMP2 =    -0.14628913112853D+03
 CCSD(T)
 CCSD(T)= -0.14626132607D+03

 Unable to determine electronic state:  partially filled degenerate orbitals.
 Alpha  occ. eigenvalues --   -4.59211  -2.95051  -2.94595  -2.94595  -0.52028
 Alpha  occ. eigenvalues --   -0.49295  -0.45626  -0.45626  -0.44823  -0.30999
 Alpha virt. eigenvalues --    0.00785   0.02484   0.02484   0.02836   0.05677
 Alpha virt. eigenvalues --    0.07022   0.07405   0.07418   0.07542   0.07542
 Alpha virt. eigenvalues --    0.08539   0.08539   0.09747   0.19056   0.21033

 Mulliken charges and spin densities:
               1          2
     1  Co   0.449113   1.998446
     2  H   -0.449113   0.001554
 Sum of Mulliken charges =  -0.00000   2.00000

 Dipole moment (field-independent basis, Debye):
    X=              0.0000    Y=              0.0000    Z=              3.5552  Tot=              3.5552
 Quadrupole moment (field-independent basis, Debye-Ang):
   XX=            -13.9420   YY=            -13.9420   ZZ=            -16.1007
   XY=              0.0000   XZ=              0.0000   YZ=              0.0000

 \\#P ROCCSD(T)=(MaxCyc=150, Full)/Gen SCF=(maxcycle=400, vshift=200) P
 \PMP2-0=-146.2891311\MP4SDQ=-146.2565896\CCSD=-146.2276412\CCSD(T)=-14
 Normal termination of Gaussian 16 at Sun Apr 22 03:01:24 2018.
