 Gaussian 16, Revision A.03,
 Gaussian 16:  ES64L-G16RevA.03 25-Dec-2016

 ----------------------------------------------------------------------
 #P ROCCSD(T)=(MaxCyc=150, Full)/Gen SCF=(maxcycle=400, vshift=200) Pse
 udo=Read Integral(NoXCTest) Pop=Regular MaxDisk=500GB Guess=Read IOp(5
 /15=2)
 ----------------------------------------------------------------------

 ---
 CoH
 ---
 Symbolic Z-matrix:
 Charge =  0 Multiplicity = 3

                         Standard orientation:
 ---------------------------------------------------------------------
 Center     Atomic      Atomic             Coordinates (Angstroms)
 Number     Number       Type             X           Y           Z
 ---------------------------------------------------------------------
      1         27           0        0.000000    0.000000    0.042857
      2          1           0        0.000000    0.000000   -1.157143
 ---------------------------------------------------------------------

 SCF Done:  E(ROHF) =  -145.355661504     A.U. after   52 cycles
 E2 =    -0.8907202664D+00 EUMP2 =    -0.14624638177006D+03
 CCSD(T)
 CCSD(T)= -0.14622011198D+03

 Unable to determine electronic state:  partially filled degenerate orbitals.
 Alpha  occ. eigenvalues --   -4.59213  -2.95060  -2.94604  -2.94604  -0.52027
 Alpha  occ. eigenvalues --   -0.49297  -0.45622  -0.45622  -0.44821  -0.31002
 Alpha virt. eigenvalues --    0.00832   0.02721   0.02721   0.03090   0.05871
 Alpha virt. eigenvalues --    0.09370   0.09370   0.10228   0.11433   0.11470
 Alpha virt. eigenvalues --    0.11472   0.11527   0.11527   0.18781   0.26461

 Mulliken charges and spin densities:
               1          2
     1  Co   0.289796   1.968796
     2  H   -0.289796   0.031204
 Sum of Mulliken charges =   0.00000   2.00000

 Dipole moment (field-independent basis, Debye):
    X=              0.0000    Y=              0.0000    Z=              3.5566  Tot=              3.5566
 Quadrupole moment (field-independent basis, Debye-Ang):
   XX=            -13.9515   YY=            -13.9515   ZZ=            -16.1029
   XY=              0.0000   XZ=              0.0000   YZ=              0.0000

 \\#P ROCCSD(T)=(MaxCyc=150, Full)/Gen SCF=(maxcycle=400, vshift=200) P
 \PMP2-0=-146.2463818\MP4SDQ=-146.2175853\CCSD=-146.1880092\CCSD(T)=-14
 Normal termination of Gaussian 16 at Sun Apr 22 02:16:15 2018.
