 Gaussian 16, Revision A.03,
 Gaussian 16:  ES64L-G16RevA.03 25-Dec-2016

 ----------------------------------------------------------------------
 #P ROCCSD(T)=(MaxCyc=150, Full)/Gen SCF=(maxcycle=400, vshift=200) Pse
 udo=Read Integral(NoXCTest) Pop=Regular MaxDisk=500GB Guess=Read IOp(5
 /15=2)
 ----------------------------------------------------------------------

 ---
 CoH
 ---
 Symbolic Z-matrix:
 Charge =  0 Multiplicity = 3

                         Standard orientation:
 ---------------------------------------------------------------------
 Center     Atomic      Atomic             Coordinates (Angstroms)
 Number     Number       Type             X           Y           Z
 ---------------------------------------------------------------------
      1         27           0        0.000000    0.000000    0.042857
      2          1           0        0.000000    0.000000   -1.157143
 ---------------------------------------------------------------------

 SCF Done:  E(ROHF) =  -145.357310210     A.U. after   25 cycles
 E2 =    -0.9521350098D+00 EUMP2 =    -0.14630944521984D+03
 CCSD(T)
 CCSD(T)= -0.14627943058D+03

 Unable to determine electronic state:  partially filled degenerate orbitals.
 Alpha  occ. eigenvalues --   -4.59212  -2.95051  -2.94595  -2.94595  -0.52026
 Alpha  occ. eigenvalues --   -0.49293  -0.45633  -0.45633  -0.44828  -0.30998
 Alpha virt. eigenvalues --    0.00679   0.02405   0.02405   0.02544   0.04883
 Alpha virt. eigenvalues --    0.06542   0.06691   0.06700   0.06856   0.06856
 Alpha virt. eigenvalues --    0.08144   0.08144   0.08463   0.14831   0.19000

 Mulliken charges and spin densities:
               1          2
     1  Co   0.376602   1.952665
     2  H   -0.376602   0.047335
 Sum of Mulliken charges =  -0.00000   2.00000

 Dipole moment (field-independent basis, Debye):
    X=              0.0000    Y=              0.0000    Z=              3.5547  Tot=              3.5547
 Quadrupole moment (field-independent basis, Debye-Ang):
   XX=            -13.9414   YY=            -13.9415   ZZ=            -16.1012
   XY=              0.0000   XZ=              0.0000   YZ=              0.0000

 \\#P ROCCSD(T)=(MaxCyc=150, Full)/Gen SCF=(maxcycle=400, vshift=200) P
 \PMP2-0=-146.3094452\MP4SDQ=-146.2737085\CCSD=-146.245145\CCSD(T)=-146
 Normal termination of Gaussian 16 at Sat Apr 28 23:55:03 2018.
