 Gaussian 16, Revision A.03,
 Gaussian 16:  ES64L-G16RevA.03 25-Dec-2016

 ----------------------------------------------------------------------
 #P ROCCSD(T)=(maxcyc=150, Full)/Gen 5d 7f SCF=(maxcycles=300) Integral
 (NoXCTest) MaxDisk=500GB Pop=Regular Pseudo=Read
 ----------------------------------------------------------------------

 ---
 MnH
 ---
 Symbolic Z-matrix:
 Charge =  0 Multiplicity = 7

                         Standard orientation:
 ---------------------------------------------------------------------
 Center     Atomic      Atomic             Coordinates (Angstroms)
 Number     Number       Type             X           Y           Z
 ---------------------------------------------------------------------
      1         25           0        0.000000    0.000000    0.057692
      2          1           0        0.000000    0.000000   -1.442308
 ---------------------------------------------------------------------

 SCF Done:  E(ROHF) =  -104.043336947     A.U. after   24 cycles
 E2 =    -0.5749472637D+00 EUMP2 =    -0.10461828421120D+03
 CCSD(T)
 CCSD(T)= -0.10464023138D+03

 The electronic state is 7-SG.
 Alpha  occ. eigenvalues --   -4.15670  -2.80298  -2.80298  -2.80287  -0.64688
 Alpha  occ. eigenvalues --   -0.63802  -0.63802  -0.63223  -0.63223  -0.41789
 Alpha  occ. eigenvalues --   -0.25369
 Alpha virt. eigenvalues --    0.01334   0.01334   0.02254   0.03193   0.05805
 Alpha virt. eigenvalues --    0.05805   0.08469   0.08509   0.08509   0.08966
 Alpha virt. eigenvalues --    0.08966   0.09400   0.14122   0.20694   0.22735

 Mulliken charges and spin densities:
               1          2
     1  Mn   0.438215   5.956121
     2  H   -0.438215   0.043879
 Sum of Mulliken charges =  -0.00000   6.00000

 Dipole moment (field-independent basis, Debye):
    X=              0.0000    Y=              0.0000    Z=              0.6152  Tot=              0.6152
 Quadrupole moment (field-independent basis, Debye-Ang):
   XX=            -16.0339   YY=            -16.0339   ZZ=            -25.6470
   XY=              0.0000   XZ=              0.0000   YZ=              0.0000

 \\#P ROCCSD(T)=(maxcyc=150, Full)/Gen 5d 7f SCF=(maxcycles=300) Integr
 42\MP4SDQ=-104.6236228\CCSD=-104.6244728\CCSD(T)=-104.6402314\RMSD=6.2
 Normal termination of Gaussian 16 at Tue Feb 13 02:42:42 2018.
