 Gaussian 16, Revision A.03,
 Gaussian 16:  ES64L-G16RevA.03 25-Dec-2016

 ----------------------------------------------------------------------
 #P ROCCSD(T)=(maxcyc=150, Full, SaveAmplitudes, ReadAmplitudes)/Gen 5d
  7f SCF=(maxcycles=300) Integral(NoXCTest) MaxDisk=500GB Pop=Regular P
 seudo=Read Guess=Read IOp(5/15=2)
 ----------------------------------------------------------------------

 ---
 CrO
 ---
 Symbolic Z-matrix:
 Charge =  0 Multiplicity = 5

                         Standard orientation:
 ---------------------------------------------------------------------
 Center     Atomic      Atomic             Coordinates (Angstroms)
 Number     Number       Type             X           Y           Z
 ---------------------------------------------------------------------
      1         24           0        0.000000    0.000000    0.325000
      2          8           0        0.000000    0.000000   -0.975000
 ---------------------------------------------------------------------

 SCF Done:  E(ROHF) =  -101.763895537     A.U. after   29 cycles
 E2 =    -0.8797049679D+00 EUMP2 =    -0.10264360050516D+03
 CCSD(T)
 CCSD(T)= -0.10265570176D+03

 Unable to determine electronic state:  an orbital has unidentified symmetry.
 Alpha  occ. eigenvalues --   -3.75048  -2.48572  -2.47402  -2.44351  -1.25529
 Alpha  occ. eigenvalues --   -0.69118  -0.60057  -0.59695  -0.51522  -0.51144
 Alpha  occ. eigenvalues --   -0.35491  -0.27030
 Alpha virt. eigenvalues --    0.01340   0.02334   0.02453   0.02871   0.05255
 Alpha virt. eigenvalues --    0.06589   0.07295   0.07733   0.07736   0.07886
 Alpha virt. eigenvalues --    0.08713   0.09856   0.12264   0.17186   0.19347

 Mulliken charges and spin densities:
               1          2
     1  Cr   0.928388   3.779317
     2  O   -0.928388   0.220683
 Sum of Mulliken charges =  -0.00000   4.00000

 Dipole moment (field-independent basis, Debye):
    X=              0.0000    Y=              0.0000    Z=              1.7277  Tot=              1.7277
 Quadrupole moment (field-independent basis, Debye-Ang):
   XX=            -21.5075   YY=            -19.8299   ZZ=            -23.6908
   XY=              0.0000   XZ=              0.0000   YZ=              0.0000

 \\#P ROCCSD(T)=(maxcyc=150, Full, SaveAmplitudes, ReadAmplitudes)/Gen
 SD=-102.6139376\CCSD(T)=-102.6557018\RMSD=3.669e-09\PG=C*V [C*(O1Cr1)]
 Normal termination of Gaussian 16 at Tue Mar 13 02:56:38 2018.
