 Gaussian 16, Revision A.03,
 Gaussian 16:  ES64L-G16RevA.03 25-Dec-2016

 ----------------------------------------------------------------------
 #P ROCCSD(T)=(maxcyc=150, Full, SaveAmplitudes, ReadAmplitudes)/Gen 5d
  7f SCF=(maxcycles=300) Integral(NoXCTest) MaxDisk=500GB Pop=Regular P
 seudo=Read Guess=Read
 ----------------------------------------------------------------------

 ---
 TiO
 ---
 Symbolic Z-matrix:
 Charge =  0 Multiplicity = 3

                         Standard orientation:
 ---------------------------------------------------------------------
 Center     Atomic      Atomic             Coordinates (Angstroms)
 Number     Number       Type             X           Y           Z
 ---------------------------------------------------------------------
      1         22           0        0.000000    0.000000    0.320000
      2          8           0        0.000000    0.000000   -0.880000
 ---------------------------------------------------------------------

 SCF Done:  E(ROHF) =  -73.0390305718     A.U. after   20 cycles
 E2 =    -0.7554574739D+00 EUMP2 =    -0.73794488045637D+02
 CCSD(T)
 CCSD(T)= -0.73817966135D+02

 Unable to determine electronic state:  an orbital has unidentified symmetry.
 Alpha  occ. eigenvalues --   -2.94554  -2.01981  -1.80979  -1.80979  -1.12106
 Alpha  occ. eigenvalues --   -0.65813  -0.65813  -0.54618  -0.32733  -0.19934
 Alpha virt. eigenvalues --    0.01206   0.01206   0.01875   0.02595   0.03721
 Alpha virt. eigenvalues --    0.03721   0.03783   0.03826   0.03882   0.04792
 Alpha virt. eigenvalues --    0.04792   0.07235   0.10423   0.10857   0.11078

 Mulliken charges and spin densities:
               1          2
     1  Ti   0.915895   2.032407
     2  O   -0.915895  -0.032407
 Sum of Mulliken charges =  -0.00000   2.00000

 Dipole moment (field-independent basis, Debye):
    X=              0.0000    Y=              0.0000    Z=             -0.7385  Tot=              0.7385
 Quadrupole moment (field-independent basis, Debye-Ang):
   XX=            -22.5970   YY=            -22.5970   ZZ=            -26.5198
   XY=              0.0000   XZ=              0.0000   YZ=              0.0000

 \\#P ROCCSD(T)=(maxcyc=150, Full, SaveAmplitudes, ReadAmplitudes)/Gen
 0=-73.794488\CCSD=-73.7850897\CCSD(T)=-73.8179661\RMSD=3.290e-09\PG=C*
 Normal termination of Gaussian 16 at Fri Mar  9 16:27:57 2018.
