 Gaussian 16, Revision A.03,
 Gaussian 16:  ES64L-G16RevA.03 25-Dec-2016

 ----------------------------------------------------------------------
 #P ROCCSD(T)=(maxcyc=100, Full)/Gen SCF=(maxcycle=400, symm) Pseudo=Re
 ad Integral(NoXCTest) Pop=Regular MaxDisk=500GB Guess=Permute IOp(5/15
 =2)
 ----------------------------------------------------------------------

 ---
 FeH
 ---
 Symbolic Z-matrix:
 Charge =  0 Multiplicity = 4

                         Standard orientation:
 ---------------------------------------------------------------------
 Center     Atomic      Atomic             Coordinates (Angstroms)
 Number     Number       Type             X           Y           Z
 ---------------------------------------------------------------------
      1         26           0        0.000000    0.000000    0.055556
      2          1           0        0.000000    0.000000   -1.444444
 ---------------------------------------------------------------------

 SCF Done:  E(ROHF) =  -123.587279021     A.U. after   34 cycles
 E2 =    -0.8287836045D+00 EUMP2 =    -0.12441606262560D+03
 CCSD(T)
 CCSD(T)= -0.12441699898D+03

 Unable to determine electronic state:  an orbital has unidentified symmetry.
 Alpha  occ. eigenvalues --   -4.18748  -2.77129  -2.76250  -2.76250  -0.50884
 Alpha  occ. eigenvalues --   -0.50884  -0.49756  -0.46183  -0.44675  -0.31648
 Alpha virt. eigenvalues --   -0.00313   0.02150   0.02150   0.02548   0.03474
 Alpha virt. eigenvalues --    0.05799   0.06235   0.06245   0.06327   0.06327
 Alpha virt. eigenvalues --    0.07309   0.07309   0.08505   0.12963   0.16886

 Mulliken charges and spin densities:
               1          2
     1  Fe   0.286274   2.994986
     2  H   -0.286274   0.005014
 Sum of Mulliken charges =  -0.00000   3.00000

 Dipole moment (field-independent basis, Debye):
    X=              0.0000    Y=              0.0000    Z=              4.1014  Tot=              4.1014
 Quadrupole moment (field-independent basis, Debye-Ang):
   XX=            -15.8040   YY=            -15.8040   ZZ=            -16.7978
   XY=              0.0000   XZ=              0.0000   YZ=              0.0000

 \\#P ROCCSD(T)=(maxcyc=100, Full)/Gen SCF=(maxcycle=400, symm) Pseudo=
 62444\CCSD(T)=-124.416999\RMSD=2.871e-09\PG=C*V [C*(H1Fe1)]\\@
 Normal termination of Gaussian 16 at Mon Feb 12 22:48:41 2018.
