 Gaussian 16, Revision A.03,
 Gaussian 16:  ES64L-G16RevA.03 25-Dec-2016

 ----------------------------------------------------------------------
 #P ROCCSD(T)=(maxcyc=100, Full)/Gen SCF=(maxcycle=400, symm) Pseudo=Re
 ad Integral(NoXCTest) Pop=Regular MaxDisk=500GB Guess=Permute IOp(5/15
 =2)
 ----------------------------------------------------------------------

 ---
 FeH
 ---
 Symbolic Z-matrix:
 Charge =  0 Multiplicity = 4

                         Standard orientation:
 ---------------------------------------------------------------------
 Center     Atomic      Atomic             Coordinates (Angstroms)
 Number     Number       Type             X           Y           Z
 ---------------------------------------------------------------------
      1         26           0        0.000000    0.000000    0.055556
      2          1           0        0.000000    0.000000   -1.444444
 ---------------------------------------------------------------------

 SCF Done:  E(ROHF) =  -123.585604601     A.U. after   30 cycles
 E2 =    -0.7791251576D+00 EUMP2 =    -0.12436472975896D+03
 CCSD(T)
 CCSD(T)= -0.12436996923D+03

 Unable to determine electronic state:  an orbital has unidentified symmetry.
 Alpha  occ. eigenvalues --   -4.18784  -2.77160  -2.76278  -2.76278  -0.50887
 Alpha  occ. eigenvalues --   -0.50887  -0.49757  -0.46173  -0.44669  -0.31644
 Alpha virt. eigenvalues --   -0.00263   0.02445   0.02445   0.03129   0.04278
 Alpha virt. eigenvalues --    0.08371   0.08371   0.09600   0.10265   0.10304
 Alpha virt. eigenvalues --    0.10370   0.10370   0.10660   0.17034   0.24104

 Mulliken charges and spin densities:
               1          2
     1  Fe   0.421432   2.995622
     2  H   -0.421432   0.004378
 Sum of Mulliken charges =  -0.00000   3.00000

 Dipole moment (field-independent basis, Debye):
    X=              0.0000    Y=              0.0000    Z=              4.1056  Tot=              4.1056
 Quadrupole moment (field-independent basis, Debye-Ang):
   XX=            -15.8209   YY=            -15.8209   ZZ=            -16.7879
   XY=              0.0000   XZ=              0.0000   YZ=              0.0000

 \\#P ROCCSD(T)=(maxcyc=100, Full)/Gen SCF=(maxcycle=400, symm) Pseudo=
 3415142\CCSD(T)=-124.3699692\RMSD=6.664e-09\PG=C*V [C*(H1Fe1)]\\@
 Normal termination of Gaussian 16 at Mon Feb 12 20:23:55 2018.
