 Gaussian 16, Revision A.03,
 Gaussian 16:  ES64L-G16RevA.03 25-Dec-2016

 ----------------------------------------------------------------------
 #P ROCCSD(T)=(maxcyc=100, Full)/Gen SCF=(maxcycle=400, symm) Pseudo=Re
 ad Integral(NoXCTest) Pop=Regular MaxDisk=500GB Guess=Permute IOp(5/15
 =2)
 ----------------------------------------------------------------------

 ---
 FeH
 ---
 Symbolic Z-matrix:
 Charge =  0 Multiplicity = 4

                         Standard orientation:
 ---------------------------------------------------------------------
 Center     Atomic      Atomic             Coordinates (Angstroms)
 Number     Number       Type             X           Y           Z
 ---------------------------------------------------------------------
      1         26           0        0.000000    0.000000    0.055556
      2          1           0        0.000000    0.000000   -1.444444
 ---------------------------------------------------------------------

 SCF Done:  E(ROHF) =  -123.586720006     A.U. after   27 cycles
 E2 =    -0.8146040317D+00 EUMP2 =    -0.12440132403783D+03
 CCSD(T)
 CCSD(T)= -0.12440436104D+03

 Unable to determine electronic state:  an orbital has unidentified symmetry.
 Alpha  occ. eigenvalues --   -4.18731  -2.77135  -2.76256  -2.76256  -0.50887
 Alpha  occ. eigenvalues --   -0.50887  -0.49760  -0.46181  -0.44673  -0.31647
 Alpha virt. eigenvalues --   -0.00283   0.02216   0.02216   0.02857   0.04028
 Alpha virt. eigenvalues --    0.06233   0.06808   0.06821   0.06844   0.06844
 Alpha virt. eigenvalues --    0.07657   0.07657   0.09713   0.16608   0.17898

 Mulliken charges and spin densities:
               1          2
     1  Fe   0.315132   2.995702
     2  H   -0.315132   0.004298
 Sum of Mulliken charges =  -0.00000   3.00000

 Dipole moment (field-independent basis, Debye):
    X=              0.0000    Y=              0.0000    Z=              4.1019  Tot=              4.1019
 Quadrupole moment (field-independent basis, Debye-Ang):
   XX=            -15.8062   YY=            -15.8062   ZZ=            -16.7958
   XY=              0.0000   XZ=              0.0000   YZ=              0.0000

 \\#P ROCCSD(T)=(maxcyc=100, Full)/Gen SCF=(maxcycle=400, symm) Pseudo=
 8\CCSD(T)=-124.404361\RMSD=1.481e-09\PG=C*V [C*(H1Fe1)]\\@
 Normal termination of Gaussian 16 at Mon Feb 12 21:02:33 2018.
