 Gaussian 16, Revision A.03,
 Gaussian 16:  ES64L-G16RevA.03 25-Dec-2016

 ----------------------------------------------------------------------
 #P ROCCSD(T)=(maxcyc=150, Full)/Gen 5d 7f SCF=(maxcycles=300, NoVarAcc
 , VShift=200) MaxDisk=100GB Pop=Regular Pseudo=Read Guess=Read
 ----------------------------------------------------------------------

 --
 Mn
 --
 Symbolic Z-matrix:
 Charge =  0 Multiplicity = 6

                         Standard orientation:
 ---------------------------------------------------------------------
 Center     Atomic      Atomic             Coordinates (Angstroms)
 Number     Number       Type             X           Y           Z
 ---------------------------------------------------------------------
      1         25           0        0.000000    0.000000    0.000000
 ---------------------------------------------------------------------

 SCF Done:  E(ROHF) =  -103.430070679     A.U. after   10 cycles
 E2 =    -0.5654707812D+00 EUMP2 =    -0.10399554146011D+03
 CCSD(T)
 CCSD(T)= -0.10401701378D+03

 The electronic state is 6-A1G.
 Alpha  occ. eigenvalues --   -4.15095  -2.79364  -2.79364  -2.79364  -0.62933
 Alpha  occ. eigenvalues --   -0.62933  -0.62933  -0.62933  -0.62933  -0.26817
 Alpha virt. eigenvalues --    0.01834   0.01834   0.01834   0.02663   0.06566
 Alpha virt. eigenvalues --    0.06566   0.06566   0.08966   0.08966   0.08966
 Alpha virt. eigenvalues --    0.08966   0.08966   0.13913   0.24198   0.24198

 Mulliken charges and spin densities:
               1          2
     1  Mn  -0.000000   5.000000
 Sum of Mulliken charges =  -0.00000   5.00000

 Dipole moment (field-independent basis, Debye):
    X=              0.0000    Y=              0.0000    Z=              0.0000  Tot=              0.0000
 Quadrupole moment (field-independent basis, Debye-Ang):
   XX=            -18.8501   YY=            -18.8501   ZZ=            -18.8501
   XY=              0.0000   XZ=              0.0000   YZ=             -0.0000

 1\1\GINC-C455-014\SP\ROCCSD(T)-Full\Gen\Mn1(6)\AANNABE\26-Mar-2018\0\\
 #P ROCCSD(T)=(maxcyc=150, Full)/Gen 5d 7f SCF=(maxcycles=300, NoVarAcc
 , VShift=200) MaxDisk=100GB Pop=Regular Pseudo=Read Guess=Read\\Mn\\0,
 6\Mn,0,0.,0.,0.\\Version=ES64L-G16RevA.03\State=6-A1G\HF=-103.4300707\
 MP2=-103.9955415\MP3=-103.9965446\PUHF=-103.4300707\PMP2-0=-103.995541
 5\MP4SDQ=-103.9995859\CCSD=-103.9996982\CCSD(T)=-104.0170138\RMSD=7.80
 8e-09\PG=OH [O(Mn1)]\\@

 Normal termination of Gaussian 16 at Mon Mar 26 10:38:47 2018.
