 Gaussian 16, Revision A.03,
 Gaussian 16:  ES64L-G16RevA.03 25-Dec-2016

 ----------------------------------------------------------------------
 #P ROCCSD(T)=(maxcyc=150, Full, SaveAmplitudes, ReadAmplitudes)/Gen 5d
  7f SCF=(maxcycles=300) Integral(NoXCTest) MaxDisk=500GB Pop=Regular P
 seudo=Read Guess=Read
 ----------------------------------------------------------------------

 ---
 MnH
 ---
 Symbolic Z-matrix:
 Charge =  0 Multiplicity = 7

                         Standard orientation:
 ---------------------------------------------------------------------
 Center     Atomic      Atomic             Coordinates (Angstroms)
 Number     Number       Type             X           Y           Z
 ---------------------------------------------------------------------
      1         25           0        0.000000    0.000000    0.050000
      2          1           0        0.000000    0.000000   -1.250000
 ---------------------------------------------------------------------

 SCF Done:  E(ROHF) =  -104.183932697     A.U. after   20 cycles
 E2 =    -0.6304605907D+00 EUMP2 =    -0.10481439328798D+03
 CCSD(T)
 CCSD(T)= -0.10483497344D+03

 The electronic state is 7-SG.
 Alpha  occ. eigenvalues --   -4.09077  -2.75620  -2.74982  -2.74982  -0.66248
 Alpha  occ. eigenvalues --   -0.63100  -0.63100  -0.62902  -0.62902  -0.41648
 Alpha  occ. eigenvalues --   -0.24577
 Alpha virt. eigenvalues --    0.01292   0.01292   0.01962   0.03117   0.05110
 Alpha virt. eigenvalues --    0.05110   0.05717   0.05836   0.05836   0.06172
 Alpha virt. eigenvalues --    0.06172   0.08363   0.13947   0.15111   0.17869

 Mulliken charges and spin densities:
               1          2
     1  Mn   0.488406   5.919357
     2  H   -0.488406   0.080643
 Sum of Mulliken charges =  -0.00000   6.00000

 Dipole moment (field-independent basis, Debye):
    X=              0.0000    Y=              0.0000    Z=             -0.0041  Tot=              0.0041
 Quadrupole moment (field-independent basis, Debye-Ang):
   XX=            -15.8252   YY=            -15.8252   ZZ=            -25.1143
   XY=              0.0000   XZ=              0.0000   YZ=              0.0000

 \\#P ROCCSD(T)=(maxcyc=150, Full, SaveAmplitudes, ReadAmplitudes)/Gen
 4.1839327\PMP2-0=-104.8143933\CCSD=-104.816825\CCSD(T)=-104.8349734\RM
 Normal termination of Gaussian 16 at Mon Feb 26 01:34:26 2018.
