 Gaussian 16, Revision A.03,
 Gaussian 16:  ES64L-G16RevA.03 25-Dec-2016

 ----------------------------------------------------------------------
 #P ROCCSD(T)=(maxcyc=150, Full, SaveAmplitudes, ReadAmplitudes)/Gen 5d
  7f SCF=(maxcycles=300) Integral(NoXCTest) MaxDisk=500GB Pop=Regular P
 seudo=Read Guess=Read IOp(5/15=2)
 ----------------------------------------------------------------------

 ---
 ScO
 ---
 Symbolic Z-matrix:
 Charge =  0 Multiplicity = 2

                         Standard orientation:
 ---------------------------------------------------------------------
 Center     Atomic      Atomic             Coordinates (Angstroms)
 Number     Number       Type             X           Y           Z
 ---------------------------------------------------------------------
      1         21           0        0.000000    0.000000    0.496552
      2          8           0        0.000000    0.000000   -1.303448
 ---------------------------------------------------------------------

 SCF Done:  E(ROHF) =  -61.8527015959     A.U. after   19 cycles
 E2 =    -0.6846177029D+00 EUMP2 =    -0.62537319298826D+02
 CCSD(T)
 CCSD(T)= -0.62567955680D+02

 The electronic state is 2-SG.
 Alpha  occ. eigenvalues --   -2.69078  -1.67581  -1.66429  -1.66429  -1.12011
 Alpha  occ. eigenvalues --   -0.41543  -0.38627  -0.38627  -0.26347
 Alpha virt. eigenvalues --   -0.00429  -0.00429   0.01189   0.02127   0.03293
 Alpha virt. eigenvalues --    0.03293   0.03485   0.03485   0.04252   0.04252
 Alpha virt. eigenvalues --    0.04398   0.04995   0.07067   0.07067   0.10258

 Mulliken charges and spin densities:
               1          2
     1  Sc   1.242858   0.975750
     2  O   -1.242858   0.024250
 Sum of Mulliken charges =  -0.00000   1.00000

 Dipole moment (field-independent basis, Debye):
    X=              0.0000    Y=              0.0000    Z=              5.7614  Tot=              5.7614
 Quadrupole moment (field-independent basis, Debye-Ang):
   XX=            -21.9641   YY=            -21.9641   ZZ=            -33.3987
   XY=              0.0000   XZ=              0.0000   YZ=              0.0000

 \\#P ROCCSD(T)=(maxcyc=150, Full, SaveAmplitudes, ReadAmplitudes)/Gen
 63\CCSD=-62.5246099\CCSD(T)=-62.5679557\RMSD=2.858e-09\PG=C*V [C*(O1Sc
 Normal termination of Gaussian 16 at Wed Feb 21 05:05:43 2018.
