 Gaussian 16, Revision A.03,
 Gaussian 16:  ES64L-G16RevA.03 25-Dec-2016

 ----------------------------------------------------------------------
 #P ROCCSD(T)=(maxcyc=150, Full, SaveAmplitudes, ReadAmplitudes)/Gen 5d
  7f SCF=(maxcycles=300) Integral(NoXCTest) MaxDisk=500GB Pop=Regular P
 seudo=Read Guess=Read
 ----------------------------------------------------------------------

 ---
 TiO
 ---
 Symbolic Z-matrix:
 Charge =  0 Multiplicity = 3

                         Standard orientation:
 ---------------------------------------------------------------------
 Center     Atomic      Atomic             Coordinates (Angstroms)
 Number     Number       Type             X           Y           Z
 ---------------------------------------------------------------------
      1         22           0        0.000000    0.000000    0.346667
      2          8           0        0.000000    0.000000   -0.953333
 ---------------------------------------------------------------------

 SCF Done:  E(ROHF) =  -73.3855172357     A.U. after   22 cycles
 E2 =    -0.7730088605D+00 EUMP2 =    -0.74158526096189D+02
 CCSD(T)
 CCSD(T)= -0.74181563139D+02

 Unable to determine electronic state:  an orbital has unidentified symmetry.
 Alpha  occ. eigenvalues --   -2.97169  -1.94441  -1.81014  -1.81014  -1.14548
 Alpha  occ. eigenvalues --   -0.59013  -0.59013  -0.52254  -0.35269  -0.21737
 Alpha virt. eigenvalues --    0.01125   0.01125   0.02114   0.02335   0.03784
 Alpha virt. eigenvalues --    0.03784   0.03805   0.03845   0.03859   0.04616
 Alpha virt. eigenvalues --    0.04616   0.07214   0.10376   0.10675   0.11225

 Mulliken charges and spin densities:
               1          2
     1  Ti   0.943408   1.990951
     2  O   -0.943408   0.009049
 Sum of Mulliken charges =  -0.00000   2.00000

 Dipole moment (field-independent basis, Debye):
    X=              0.0000    Y=              0.0000    Z=              0.6581  Tot=              0.6581
 Quadrupole moment (field-independent basis, Debye-Ang):
   XX=            -21.9448   YY=            -21.9448   ZZ=            -27.0742
   XY=              0.0000   XZ=              0.0000   YZ=              0.0000

 \\#P ROCCSD(T)=(maxcyc=150, Full, SaveAmplitudes, ReadAmplitudes)/Gen
 -0=-74.1585261\CCSD=-74.1451724\CCSD(T)=-74.1815631\RMSD=2.529e-09\PG=
 Normal termination of Gaussian 16 at Tue Mar 13 01:01:08 2018.
