 Gaussian 16, Revision A.03,
 Gaussian 16:  ES64L-G16RevA.03 25-Dec-2016

 ----------------------------------------------------------------------
 #P ROCCSD(T)=(maxcyc=150, Full, SaveAmplitudes, ReadAmplitudes)/Gen 5d
  7f SCF=(maxcycles=300) Integral(NoXCTest) MaxDisk=500GB Pop=Regular P
 seudo=Read Guess=Read
 ----------------------------------------------------------------------

 ---
 TiO
 ---
 Symbolic Z-matrix:
 Charge =  0 Multiplicity = 3

                         Standard orientation:
 ---------------------------------------------------------------------
 Center     Atomic      Atomic             Coordinates (Angstroms)
 Number     Number       Type             X           Y           Z
 ---------------------------------------------------------------------
      1         22           0        0.000000    0.000000    0.480000
      2          8           0        0.000000    0.000000   -1.320000
 ---------------------------------------------------------------------

 SCF Done:  E(ROHF) =  -73.5212448221     A.U. after   20 cycles
 E2 =    -0.7884296814D+00 EUMP2 =    -0.74309674503503D+02
 CCSD(T)
 CCSD(T)= -0.74341321671D+02

 Unable to determine electronic state:  an orbital has unidentified symmetry.
 Alpha  occ. eigenvalues --   -3.08943  -1.95494  -1.95494  -1.91414  -1.12801
 Alpha  occ. eigenvalues --   -0.50827  -0.43177  -0.39389  -0.39389  -0.28884
 Alpha virt. eigenvalues --   -0.00450  -0.00450   0.00638   0.02111   0.03118
 Alpha virt. eigenvalues --    0.03118   0.03591   0.03648   0.03707   0.04323
 Alpha virt. eigenvalues --    0.04323   0.04669   0.07457   0.09934   0.10864

 Mulliken charges and spin densities:
               1          2
     1  Ti   1.020232   1.975857
     2  O   -1.020232   0.024143
 Sum of Mulliken charges =  -0.00000   2.00000

 Dipole moment (field-independent basis, Debye):
    X=              0.0000    Y=              0.0000    Z=              6.1590  Tot=              6.1590
 Quadrupole moment (field-independent basis, Debye-Ang):
   XX=            -21.5241   YY=            -21.5241   ZZ=            -30.0158
   XY=              0.0000   XZ=              0.0000   YZ=              0.0000

 \\#P ROCCSD(T)=(maxcyc=150, Full, SaveAmplitudes, ReadAmplitudes)/Gen
 -0=-74.3096745\CCSD=-74.286455\CCSD(T)=-74.3413217\RMSD=1.552e-09\PG=C
 Normal termination of Gaussian 16 at Mon Mar 12 15:43:23 2018.
