 Gaussian 16, Revision A.03,
 Gaussian 16:  ES64L-G16RevA.03 25-Dec-2016

 ----------------------------------------------------------------------
 #P ROCCSD(T)=(maxcyc=150, Window=(7,0), SaveAmplitudes, ReadAmplitudes
 )/Gen 5d 7f SCF=(maxcycles=300) Integral(NoXCTest, DKHSO) MaxDisk=500G
 B Pop=Regular Guess=Read IOp(5/15=2)
 ----------------------------------------------------------------------

 ---
 CrO
 ---
 Symbolic Z-matrix:
 Charge =  0 Multiplicity = 5

                         Standard orientation:
 ---------------------------------------------------------------------
 Center     Atomic      Atomic             Coordinates (Angstroms)
 Number     Number       Type             X           Y           Z
 ---------------------------------------------------------------------
      1         24           0        0.000000    0.000000    0.325000
      2          8           0        0.000000    0.000000   -0.975000
 ---------------------------------------------------------------------

 SCF Done:  E(ROHF) =  -1124.38334300     A.U. after   32 cycles
 E2 =    -0.8662870412D+00 EUMP2 =    -0.11252496300385D+04
 CCSD(T)
 CCSD(T)= -0.11252542706D+04

 Unable to determine electronic state:  an orbital has unidentified symmetry.
 Alpha  occ. eigenvalues -- -222.22259 -26.81560 -22.44952 -22.44838 -22.44426
 Alpha  occ. eigenvalues --  -20.57532  -3.67310  -2.42865  -2.42851  -2.39194
 Alpha  occ. eigenvalues --   -1.23918  -0.68868  -0.59975  -0.59615  -0.51275
 Alpha  occ. eigenvalues --   -0.50906  -0.35168  -0.27179
 Alpha virt. eigenvalues --    0.01347   0.02331   0.02465   0.02872   0.05262
 Alpha virt. eigenvalues --    0.06595   0.07310   0.07734   0.07738   0.07888
 Alpha virt. eigenvalues --    0.08735   0.09858   0.12282   0.17262   0.19328

 Mulliken charges and spin densities:
               1          2
     1  Cr   0.893054   3.764623
     2  O   -0.893054   0.235377
 Sum of Mulliken charges =  -0.00000   4.00000

 Dipole moment (field-independent basis, Debye):
    X=              0.0000    Y=             -0.0000    Z=              1.7388  Tot=              1.7388
 Quadrupole moment (field-independent basis, Debye-Ang):
   XX=            -21.8710   YY=            -20.1526   ZZ=            -24.0341
   XY=             -0.0000   XZ=              0.0000   YZ=             -0.0000

 1\1\GINC-C484-052\SP\ROCCSD(T)-RW\Gen\Cr1O1(5)\AANNABE\14-Mar-2018\0\\
 #P ROCCSD(T)=(maxcyc=150, Window=(7,0), SaveAmplitudes, ReadAmplitudes
 )/Gen 5d 7f SCF=(maxcycles=300) Integral(NoXCTest, DKHSO) MaxDisk=500G
 B Pop=Regular Guess=Read IOp(5/15=2)\\CrO\\0,5\Cr,0,0.,0.,0.\O,0,0.,0.
 ,1.3\\Version=ES64L-G16RevA.03\HF=-1124.383343\MP2=-1125.24963\MP3=-11
 25.1805136\PUHF=-1124.383343\PMP2-0=-1125.24963\MP4SDQ=-1125.2345484\C
 CSD=-1125.2137662\CCSD(T)=-1125.2542706\RMSD=6.309e-09\PG=C*V [C*(O1Cr
 1)]\\@

 Normal termination of Gaussian 16 at Wed Mar 14 14:22:20 2018.
