 Gaussian 16, Revision A.03,
 Gaussian 16:  ES64L-G16RevA.03 25-Dec-2016

 ----------------------------------------------------------------------
 #P ROCCSD(T)=(maxcyc=150, Full, SaveAmplitudes, ReadAmplitudes)/Gen 5d
  7f SCF=(maxcycles=300) Integral(NoXCTest) MaxDisk=500GB Pop=Regular P
 seudo=Read Guess=Read IOp(5/15=2)
 ----------------------------------------------------------------------

 ---
 CrH
 ---
 Symbolic Z-matrix:
 Charge =  0 Multiplicity = 6

                         Standard orientation:
 ---------------------------------------------------------------------
 Center     Atomic      Atomic             Coordinates (Angstroms)
 Number     Number       Type             X           Y           Z
 ---------------------------------------------------------------------
      1         24           0        0.000000    0.000000    0.044000
      2          1           0        0.000000    0.000000   -1.056000
 ---------------------------------------------------------------------

 SCF Done:  E(ROHF) =  -86.7147850444     A.U. after   38 cycles
 E2 =    -0.6111626192D+00 EUMP2 =    -0.87325947663632D+02
 CCSD(T)
 CCSD(T)= -0.87343260676D+02

 The electronic state is 6-SG.
 Alpha  occ. eigenvalues --   -3.57106  -2.33168  -2.32844  -2.32844  -0.48131
 Alpha  occ. eigenvalues --   -0.43790  -0.43790  -0.40789  -0.40789  -0.24984
 Alpha virt. eigenvalues --    0.01743   0.01824   0.01824   0.02414   0.06249
 Alpha virt. eigenvalues --    0.06364   0.06364   0.07919   0.07919   0.07991
 Alpha virt. eigenvalues --    0.08103   0.08103   0.09856   0.20095   0.22356

 Mulliken charges and spin densities:
               1          2
     1  Cr   0.559192   5.001166
     2  H   -0.559192  -0.001166
 Sum of Mulliken charges =  -0.00000   5.00000

 Dipole moment (field-independent basis, Debye):
    X=              0.0000    Y=              0.0000    Z=              2.0304  Tot=              2.0304
 Quadrupole moment (field-independent basis, Debye-Ang):
   XX=            -16.4617   YY=            -16.4617   ZZ=            -17.9815
   XY=              0.0000   XZ=              0.0000   YZ=              0.0000

 \\#P ROCCSD(T)=(maxcyc=150, Full, SaveAmplitudes, ReadAmplitudes)/Gen
 \CCSD=-87.3216146\CCSD(T)=-87.3432607\RMSD=6.268e-09\PG=C*V [C*(H1Cr1)
 Normal termination of Gaussian 16 at Sun Feb 25 18:11:12 2018.
