 Gaussian 16, Revision A.03,
 Gaussian 16:  ES64L-G16RevA.03 25-Dec-2016

 ----------------------------------------------------------------------
 #P ROCCSD(T)=(maxcyc=150, Full, SaveAmplitudes, ReadAmplitudes)/Gen 5d
  7f SCF=(maxcycles=300) Integral(NoXCTest, DKHSO) MaxDisk=500GB Pop=Re
 gular Guess=Read IOp(5/15=2)
 ----------------------------------------------------------------------

 ---
 ScO
 ---
 Symbolic Z-matrix:
 Charge =  0 Multiplicity = 2

                         Standard orientation:
 ---------------------------------------------------------------------
 Center     Atomic      Atomic             Coordinates (Angstroms)
 Number     Number       Type             X           Y           Z
 ---------------------------------------------------------------------
      1         21           0        0.000000    0.000000    0.358621
      2          8           0        0.000000    0.000000   -0.941379
 ---------------------------------------------------------------------

 SCF Done:  E(ROHF) =  -838.104794400     A.U. after   17 cycles
 E2 =    -0.1071100070D+01 EUMP2 =    -0.83917589447021D+03
 CCSD(T)
 CCSD(T)= -0.83919657726D+03

 The electronic state is 2-SG.
 Alpha  occ. eigenvalues -- -166.73436 -20.55793 -19.16405 -15.58849 -15.58849
 Alpha  occ. eigenvalues --  -15.58724  -2.57202  -1.75630  -1.52468  -1.52468
 Alpha  occ. eigenvalues --   -1.05543  -0.57800  -0.57800  -0.47059  -0.19449
 Alpha virt. eigenvalues --    0.00996   0.00996   0.02039   0.02503   0.03782
 Alpha virt. eigenvalues --    0.03782   0.03800   0.03800   0.03904   0.04788
 Alpha virt. eigenvalues --    0.04788   0.07349   0.10865   0.10865   0.11032

 Mulliken charges and spin densities:
               1          2
     1  Sc   1.209901   1.008366
     2  O   -1.209901  -0.008366
 Sum of Mulliken charges =  -0.00000   1.00000

 Dipole moment (field-independent basis, Debye):
    X=              0.0000    Y=              0.0000    Z=              0.1819  Tot=              0.1819
 Quadrupole moment (field-independent basis, Debye-Ang):
   XX=            -23.2440   YY=            -23.2440   ZZ=            -30.1005
   XY=              0.0000   XZ=              0.0000   YZ=              0.0000

 \\#P ROCCSD(T)=(maxcyc=150, Full, SaveAmplitudes, ReadAmplitudes)/Gen
 331\CCSD=-839.1658343\CCSD(T)=-839.1965773\RMSD=1.712e-09\PG=C*V [C*(O
 Normal termination of Gaussian 16 at Tue Feb 20 19:59:57 2018.
