 Gaussian 16, Revision A.03,
 Gaussian 16:  ES64L-G16RevA.03 25-Dec-2016

 ----------------------------------------------------------------------
 #P ROCCSD(T)=(maxcyc=150, Window=(6,0), SaveAmplitudes, ReadAmplitudes
 )/Gen 5d 7f SCF=(maxcycles=300) Integral(NoXCTest, DKHSO) MaxDisk=500G
 B Pop=Regular Guess=Read IOp(5/15=2)
 ----------------------------------------------------------------------

 ---
 CrH
 ---
 Symbolic Z-matrix:
 Charge =  0 Multiplicity = 6

                         Standard orientation:
 ---------------------------------------------------------------------
 Center     Atomic      Atomic             Coordinates (Angstroms)
 Number     Number       Type             X           Y           Z
 ---------------------------------------------------------------------
      1         24           0        0.000000    0.000000    0.040000
      2          1           0        0.000000    0.000000   -0.960000
 ---------------------------------------------------------------------

 SCF Done:  E(ROHF) =  -1049.94861743     A.U. after   35 cycles
 E2 =    -0.5946842289D+00 EUMP2 =    -0.10505433016592D+04
 CCSD(T)
 CCSD(T)= -0.10505474737D+04

 The electronic state is 6-SG.
 Alpha  occ. eigenvalues -- -222.07156 -26.65075 -22.28564 -22.28564 -22.28499
 Alpha  occ. eigenvalues --   -3.55549  -2.32877  -2.30023  -2.30023  -0.49944
 Alpha  occ. eigenvalues --   -0.42348  -0.42348  -0.39146  -0.39146  -0.24622
 Alpha virt. eigenvalues --    0.01712   0.01892   0.01892   0.02410   0.06432
 Alpha virt. eigenvalues --    0.06538   0.06538   0.07924   0.07948   0.07948
 Alpha virt. eigenvalues --    0.08069   0.08069   0.09779   0.20679   0.22729

 Mulliken charges and spin densities:
               1          2
     1  Cr   0.409130   4.974755
     2  H   -0.409130   0.025245
 Sum of Mulliken charges =  -0.00000   5.00000

 Dipole moment (field-independent basis, Debye):
    X=              0.0000    Y=              0.0000    Z=              1.9073  Tot=              1.9073
 Quadrupole moment (field-independent basis, Debye-Ang):
   XX=            -16.7813   YY=            -16.7813   ZZ=            -17.8009
   XY=              0.0000   XZ=              0.0000   YZ=              0.0000

 1\1\GINC-C505-052\SP\ROCCSD(T)-RW\Gen\Cr1H1(6)\AANNABE\25-Feb-2018\0\\
 #P ROCCSD(T)=(maxcyc=150, Window=(6,0), SaveAmplitudes, ReadAmplitudes
 )/Gen 5d 7f SCF=(maxcycles=300) Integral(NoXCTest, DKHSO) MaxDisk=500G
 B Pop=Regular Guess=Read IOp(5/15=2)\\CrH\\0,6\Cr,0,0.,0.,0.\H,0,0.,0.
 ,1.\\Version=ES64L-G16RevA.03\State=6-SG\HF=-1049.9486174\MP2=-1050.54
 33017\MP3=-1050.5152169\PUHF=-1049.9486174\PMP2-0=-1050.5433017\MP4SDQ
 =-1050.5304153\CCSD=-1050.5270327\CCSD(T)=-1050.5474737\RMSD=6.876e-09
 \PG=C*V [C*(H1Cr1)]\\@

 Normal termination of Gaussian 16 at Sun Feb 25 17:03:34 2018.
