 Gaussian 16, Revision A.03,
 Gaussian 16:  ES64L-G16RevA.03 25-Dec-2016

 ----------------------------------------------------------------------
 #P ROCCSD(T)=(maxcyc=150, Full)/Gen 5d 7f SCF=(maxcycles=300) Integral
 (NoXCTest) MaxDisk=500GB Pop=Regular Pseudo=Read IOp(5/15=2) Guess=Rea
 d
 ----------------------------------------------------------------------

 ---
 ScH
 ---
 Symbolic Z-matrix:
 Charge =  0 Multiplicity = 1

                         Standard orientation:
 ---------------------------------------------------------------------
 Center     Atomic      Atomic             Coordinates (Angstroms)
 Number     Number       Type             X           Y           Z
 ---------------------------------------------------------------------
      1         21           0        0.000000    0.000000    0.077273
      2          1           0        0.000000    0.000000   -1.622727
 ---------------------------------------------------------------------

 SCF Done:  E(ROHF) =  -46.7963588058     A.U. after    9 cycles
 E2 =    -0.4305331157D+00 EUMP2 =    -0.47226891921523D+02
 CCSD(T)
 CCSD(T)= -0.47267434513D+02

 The electronic state is 1-SG.
 Alpha  occ. eigenvalues --   -2.72089  -1.65732  -1.65568  -1.65568  -0.41738
 Alpha  occ. eigenvalues --   -0.23020
 Alpha virt. eigenvalues --    0.01168   0.01168   0.01506   0.01666   0.02603
 Alpha virt. eigenvalues --    0.02603   0.02651   0.02651   0.02681   0.04067
 Alpha virt. eigenvalues --    0.04120   0.04120   0.06959   0.07041   0.07041

 Mulliken charges and spin densities:
               1          2
     1  Sc   0.375188   0.000000
     2  H   -0.375188   0.000000
 Sum of Mulliken charges =  -0.00000   0.00000

 Dipole moment (field-independent basis, Debye):
    X=              0.0000    Y=              0.0000    Z=              1.2058  Tot=              1.2058
 Quadrupole moment (field-independent basis, Debye-Ang):
   XX=            -22.9669   YY=            -22.9669   ZZ=            -25.9485
   XY=              0.0000   XZ=              0.0000   YZ=              0.0000

 P ROCCSD(T)=(maxcyc=150, Full)/Gen 5d 7f SCF=(maxcycles=300) Integral(
 PMP2-0=-47.2268919\MP4SDQ=-47.2480333\CCSD=-47.2479578\CCSD(T)=-47.267
 Normal termination of Gaussian 16 at Wed Feb 14 05:02:48 2018.
