 Gaussian 16, Revision A.03,
 Gaussian 16:  ES64L-G16RevA.03 25-Dec-2016

 ----------------------------------------------------------------------
 #P ROCCSD(T)=(maxcyc=150, FrzINGC)/Gen 5d 7f SCF=(maxcycles=300) Integ
 ral(NoXCTest, DKHSO) MaxDisk=500GB Pop=Regular IOp(5/15=2) Guess=Read
 ----------------------------------------------------------------------

 ---
 ScH
 ---
 Symbolic Z-matrix:
 Charge =  0 Multiplicity = 1

                         Standard orientation:
 ---------------------------------------------------------------------
 Center     Atomic      Atomic             Coordinates (Angstroms)
 Number     Number       Type             X           Y           Z
 ---------------------------------------------------------------------
      1         21           0        0.000000    0.000000    0.090909
      2          1           0        0.000000    0.000000   -1.909091
 ---------------------------------------------------------------------

 SCF Done:  E(ROHF) =  -763.825434253     A.U. after   12 cycles
 E2 =    -0.3772395930D+00 EUMP2 =    -0.76420267384619D+03
 CCSD(T)
 CCSD(T)= -0.76424953798D+03

 The electronic state is 1-SG.
 Alpha  occ. eigenvalues -- -166.94352 -19.40020 -15.82355 -15.82355 -15.81551
 Alpha  occ. eigenvalues --   -2.70640  -1.68062  -1.68062  -1.67847  -0.38141
 Alpha  occ. eigenvalues --   -0.23968
 Alpha virt. eigenvalues --    0.01007   0.01007   0.01410   0.02256   0.03582
 Alpha virt. eigenvalues --    0.03777   0.03777   0.03933   0.03933   0.04339
 Alpha virt. eigenvalues --    0.04339   0.04487   0.07480   0.07480   0.08469

 Mulliken charges and spin densities:
               1          2
     1  Sc   0.321409   0.000000
     2  H   -0.321409   0.000000
 Sum of Mulliken charges =  -0.00000   0.00000

 Dipole moment (field-independent basis, Debye):
    X=              0.0000    Y=              0.0000    Z=              2.0967  Tot=              2.0967
 Quadrupole moment (field-independent basis, Debye-Ang):
   XX=            -23.3642   YY=            -23.3642   ZZ=            -29.0308
   XY=              0.0000   XZ=              0.0000   YZ=              0.0000

  ROCCSD(T)=(maxcyc=150, FrzINGC)/Gen 5d 7f SCF=(maxcycles=300) Integra
 PMP2-0=-764.2026738\MP4SDQ=-764.2314728\CCSD=-764.2323828\CCSD(T)=-764
 Normal termination of Gaussian 16 at Tue Feb 13 20:15:52 2018.
