 Gaussian 16, Revision A.03,
 Gaussian 16:  ES64L-G16RevA.03 25-Dec-2016

 ----------------------------------------------------------------------
 #P ROCCSD(T)=(maxcyc=150, Full, SaveAmplitudes, ReadAmplitudes)/Gen 5d
  7f SCF=(maxcycles=300) Integral(NoXCTest) MaxDisk=500GB Pop=Regular P
 seudo=Read Guess=Read IOp(5/15=2)
 ----------------------------------------------------------------------

 ---
 MnO
 ---
 Symbolic Z-matrix:
 Charge =  0 Multiplicity = 6

                         Standard orientation:
 ---------------------------------------------------------------------
 Center     Atomic      Atomic             Coordinates (Angstroms)
 Number     Number       Type             X           Y           Z
 ---------------------------------------------------------------------
      1         25           0        0.000000    0.000000    0.339394
      2          8           0        0.000000    0.000000   -1.060606
 ---------------------------------------------------------------------

 SCF Done:  E(ROHF) =  -119.284567745     A.U. after   29 cycles
 E2 =    -0.9412936556D+00 EUMP2 =    -0.12022586140032D+03
 CCSD(T)
 CCSD(T)= -0.12023923403D+03

 The electronic state is 6-SG.
 Alpha  occ. eigenvalues --   -4.09249  -2.75366  -2.75366  -2.73037  -1.24476
 Alpha  occ. eigenvalues --   -0.70531  -0.70531  -0.63327  -0.63327  -0.55777
 Alpha  occ. eigenvalues --   -0.41166  -0.41166  -0.31910
 Alpha virt. eigenvalues --    0.01175   0.02175   0.02175   0.03316   0.05035
 Alpha virt. eigenvalues --    0.07049   0.07049   0.08697   0.08697   0.09364
 Alpha virt. eigenvalues --    0.09364   0.09471   0.12544   0.15307   0.23444

 Mulliken charges and spin densities:
               1          2
     1  Mn   0.925240   4.811797
     2  O   -0.925240   0.188203
 Sum of Mulliken charges =  -0.00000   5.00000

 Dipole moment (field-independent basis, Debye):
    X=              0.0000    Y=              0.0000    Z=              4.2295  Tot=              4.2295
 Quadrupole moment (field-independent basis, Debye-Ang):
   XX=            -19.5953   YY=            -19.5953   ZZ=            -23.1677
   XY=              0.0000   XZ=              0.0000   YZ=              0.0000

 \\#P ROCCSD(T)=(maxcyc=150, Full, SaveAmplitudes, ReadAmplitudes)/Gen
 2137241\CCSD=-120.1974108\CCSD(T)=-120.239234\RMSD=6.724e-09\PG=C*V [C
 Normal termination of Gaussian 16 at Tue Mar 13 12:33:10 2018.
