 Gaussian 16, Revision A.03,
 Gaussian 16:  ES64L-G16RevA.03 25-Dec-2016

 ----------------------------------------------------------------------
 #P ROCCSD(T)=(maxcyc=150, FrzINGC)/Gen 5d 7f SCF=(maxcycles=300) Integ
 ral(NoXCTest, DKHSO) MaxDisk=500GB Pop=Regular IOp(5/15=2) Guess=Read
 ----------------------------------------------------------------------

 ---
 ScH
 ---
 Symbolic Z-matrix:
 Charge =  0 Multiplicity = 1

                         Standard orientation:
 ---------------------------------------------------------------------
 Center     Atomic      Atomic             Coordinates (Angstroms)
 Number     Number       Type             X           Y           Z
 ---------------------------------------------------------------------
      1         21           0        0.000000    0.000000    0.086364
      2          1           0        0.000000    0.000000   -1.813636
 ---------------------------------------------------------------------

 SCF Done:  E(ROHF) =  -763.830100319     A.U. after   12 cycles
 E2 =    -0.3783023022D+00 EUMP2 =    -0.76420840262109D+03
 CCSD(T)
 CCSD(T)= -0.76425412062D+03

 The electronic state is 1-SG.
 Alpha  occ. eigenvalues -- -166.93375 -19.39003 -15.81336 -15.81336 -15.80551
 Alpha  occ. eigenvalues --   -2.69765  -1.67237  -1.67237  -1.67078  -0.39350
 Alpha  occ. eigenvalues --   -0.23622
 Alpha virt. eigenvalues --    0.01076   0.01076   0.01521   0.02225   0.03569
 Alpha virt. eigenvalues --    0.03806   0.03806   0.03928   0.03928   0.04427
 Alpha virt. eigenvalues --    0.04427   0.04665   0.07874   0.07874   0.08766

 Mulliken charges and spin densities:
               1          2
     1  Sc   0.334940   0.000000
     2  H   -0.334940   0.000000
 Sum of Mulliken charges =   0.00000   0.00000

 Dipole moment (field-independent basis, Debye):
    X=              0.0000    Y=              0.0000    Z=              1.7415  Tot=              1.7415
 Quadrupole moment (field-independent basis, Debye-Ang):
   XX=            -23.4123   YY=            -23.4123   ZZ=            -28.2152
   XY=              0.0000   XZ=              0.0000   YZ=              0.0000

  ROCCSD(T)=(maxcyc=150, FrzINGC)/Gen 5d 7f SCF=(maxcycles=300) Integra
 \PMP2-0=-764.2084026\MP4SDQ=-764.2366016\CCSD=-764.2372664\CCSD(T)=-76
 Normal termination of Gaussian 16 at Tue Feb 13 19:43:26 2018.
