 Gaussian 16, Revision A.03,
 Gaussian 16:  ES64L-G16RevA.03 25-Dec-2016

 ----------------------------------------------------------------------
 #P ROCCSD(T)=(maxcyc=150, Full, SaveAmplitudes, ReadAmplitudes)/Gen 5d
  7f SCF=(maxcycles=300) Integral(NoXCTest) MaxDisk=500GB Pop=Regular P
 seudo=Read Guess=Read IOp(5/15=2)
 ----------------------------------------------------------------------

 ---
 CrH
 ---
 Symbolic Z-matrix:
 Charge =  0 Multiplicity = 6

                         Standard orientation:
 ---------------------------------------------------------------------
 Center     Atomic      Atomic             Coordinates (Angstroms)
 Number     Number       Type             X           Y           Z
 ---------------------------------------------------------------------
      1         24           0        0.000000    0.000000    0.056000
      2          1           0        0.000000    0.000000   -1.344000
 ---------------------------------------------------------------------

 SCF Done:  E(ROHF) =  -86.8529574500     A.U. after   31 cycles
 E2 =    -0.5631241929D+00 EUMP2 =    -0.87416081642933D+02
 CCSD(T)
 CCSD(T)= -0.87451054125D+02

 The electronic state is 6-SG.
 Alpha  occ. eigenvalues --   -3.69915  -2.39769  -2.39769  -2.36478  -0.49847
 Alpha  occ. eigenvalues --   -0.49847  -0.46942  -0.46942  -0.43731  -0.25497
 Alpha virt. eigenvalues --    0.01612   0.01612   0.02132   0.02399   0.05984
 Alpha virt. eigenvalues --    0.05984   0.06092   0.07773   0.07773   0.08111
 Alpha virt. eigenvalues --    0.08111   0.08409   0.10105   0.19047   0.21792

 Mulliken charges and spin densities:
               1          2
     1  Cr   0.645105   5.001502
     2  H   -0.645105  -0.001502
 Sum of Mulliken charges =  -0.00000   5.00000

 Dipole moment (field-independent basis, Debye):
    X=              0.0000    Y=              0.0000    Z=              1.9298  Tot=              1.9298
 Quadrupole moment (field-independent basis, Debye-Ang):
   XX=            -16.7393   YY=            -16.7393   ZZ=            -20.8082
   XY=              0.0000   XZ=              0.0000   YZ=              0.0000

 \\#P ROCCSD(T)=(maxcyc=150, Full, SaveAmplitudes, ReadAmplitudes)/Gen
 58\CCSD=-87.4318906\CCSD(T)=-87.4510541\RMSD=9.506e-09\PG=C*V [C*(H1Cr
 Normal termination of Gaussian 16 at Mon Feb 26 03:02:26 2018.
