 Gaussian 16, Revision A.03,
 Gaussian 16:  ES64L-G16RevA.03 25-Dec-2016

 ----------------------------------------------------------------------
 #P ROCCSD(T)=(maxcyc=150, Full, SaveAmplitudes, ReadAmplitudes)/Gen 5d
  7f SCF=(maxcycles=300) Integral(NoXCTest) MaxDisk=500GB Pop=Regular P
 seudo=Read Guess=Read
 ----------------------------------------------------------------------

 ---
 CrO
 ---
 Symbolic Z-matrix:
 Charge =  0 Multiplicity = 5

                         Standard orientation:
 ---------------------------------------------------------------------
 Center     Atomic      Atomic             Coordinates (Angstroms)
 Number     Number       Type             X           Y           Z
 ---------------------------------------------------------------------
      1         24           0        0.000000    0.000000    0.300000
      2          8           0        0.000000    0.000000   -0.900000
 ---------------------------------------------------------------------

 SCF Done:  E(ROHF) =  -101.624918288     A.U. after   25 cycles
 E2 =    -0.9219651090D+00 EUMP2 =    -0.10254688339698D+03
 CCSD(T)
 CCSD(T)= -0.10255066453D+03

 Unable to determine electronic state:  an orbital has unidentified symmetry.
 Alpha  occ. eigenvalues --   -3.75773  -2.52163  -2.47672  -2.43924  -1.26707
 Alpha  occ. eigenvalues --   -0.75076  -0.69004  -0.65480  -0.50452  -0.50359
 Alpha  occ. eigenvalues --   -0.30286  -0.26244
 Alpha virt. eigenvalues --    0.01395   0.02089   0.02570   0.02572   0.04855
 Alpha virt. eigenvalues --    0.05041   0.05465   0.05469   0.05508   0.05612
 Alpha virt. eigenvalues --    0.08659   0.08721   0.10315   0.13942   0.14996

 Mulliken charges and spin densities:
               1          2
     1  Cr   0.831216   3.864851
     2  O   -0.831216   0.135149
 Sum of Mulliken charges =  -0.00000   4.00000

 Dipole moment (field-independent basis, Debye):
    X=              0.0000    Y=              0.0000    Z=              0.2420  Tot=              0.2420
 Quadrupole moment (field-independent basis, Debye-Ang):
   XX=            -22.8287   YY=            -19.9785   ZZ=            -22.8796
   XY=              0.0000   XZ=              0.0000   YZ=              0.0000

 \\#P ROCCSD(T)=(maxcyc=150, Full, SaveAmplitudes, ReadAmplitudes)/Gen
 MP2-0=-102.5468834\CCSD=-102.5098863\CCSD(T)=-102.5506645\RMSD=3.338e-
 Normal termination of Gaussian 16 at Mon Mar 12 16:02:29 2018.
