 Gaussian 16, Revision A.03,
 Gaussian 16:  ES64L-G16RevA.03 25-Dec-2016

 ----------------------------------------------------------------------
 #P ROCCSD(T)=(maxcyc=150, Full, SaveAmplitudes, ReadAmplitudes)/Gen 5d
  7f SCF=(maxcycles=300) Integral(NoXCTest) MaxDisk=500GB Pop=Regular P
 seudo=Read Guess=Read IOp(5/15=2)
 ----------------------------------------------------------------------

 ---
 MnH
 ---
 Symbolic Z-matrix:
 Charge =  0 Multiplicity = 7

                         Standard orientation:
 ---------------------------------------------------------------------
 Center     Atomic      Atomic             Coordinates (Angstroms)
 Number     Number       Type             X           Y           Z
 ---------------------------------------------------------------------
      1         25           0        0.000000    0.000000    0.057692
      2          1           0        0.000000    0.000000   -1.442308
 ---------------------------------------------------------------------

 SCF Done:  E(ROHF) =  -104.055165069     A.U. after   24 cycles
 E2 =    -0.5750593026D+00 EUMP2 =    -0.10463022437136D+03
 CCSD(T)
 CCSD(T)= -0.10465172504D+03

 The electronic state is 7-SG.
 Alpha  occ. eigenvalues --   -4.23705  -2.79056  -2.79056  -2.79032  -0.64750
 Alpha  occ. eigenvalues --   -0.63869  -0.63869  -0.63292  -0.63292  -0.41786
 Alpha  occ. eigenvalues --   -0.25318
 Alpha virt. eigenvalues --    0.01337   0.01337   0.02255   0.03195   0.05815
 Alpha virt. eigenvalues --    0.05815   0.08464   0.08506   0.08506   0.08963
 Alpha virt. eigenvalues --    0.08963   0.09401   0.14137   0.20683   0.22769

 Mulliken charges and spin densities:
               1          2
     1  Mn   0.441430   5.955816
     2  H   -0.441430   0.044184
 Sum of Mulliken charges =  -0.00000   6.00000

 Dipole moment (field-independent basis, Debye):
    X=              0.0000    Y=              0.0000    Z=              0.6135  Tot=              0.6135
 Quadrupole moment (field-independent basis, Debye-Ang):
   XX=            -16.0656   YY=            -16.0656   ZZ=            -25.7006
   XY=              0.0000   XZ=              0.0000   YZ=              0.0000

 \\#P ROCCSD(T)=(maxcyc=150, Full, SaveAmplitudes, ReadAmplitudes)/Gen
 .6350704\CCSD=-104.6358889\CCSD(T)=-104.651725\RMSD=7.426e-09\PG=C*V [
 Normal termination of Gaussian 16 at Mon Feb 26 06:04:51 2018.
