 Gaussian 16, Revision A.03,
 Gaussian 16:  ES64L-G16RevA.03 25-Dec-2016

 ----------------------------------------------------------------------
 #P ROCCSD(T)=(maxcyc=150, Full)/Gen 5d 7f SCF=(maxcycles=300, NoVarAcc
 , VShift=200) MaxDisk=100GB Pop=Regular Pseudo=Read Guess=Read
 ----------------------------------------------------------------------

 --
 Sc
 --
 Symbolic Z-matrix:
 Charge =  0 Multiplicity = 2

                         Standard orientation:
 ---------------------------------------------------------------------
 Center     Atomic      Atomic             Coordinates (Angstroms)
 Number     Number       Type             X           Y           Z
 ---------------------------------------------------------------------
      1         21           0        0.000000    0.000000    0.000000
 ---------------------------------------------------------------------

 SCF Done:  E(ROHF) =  -46.1275535771     A.U. after   12 cycles
 E2 =    -0.3931647448D+00 EUMP2 =    -0.46520718321879D+02
 CCSD(T)
 CCSD(T)= -0.46554187389D+02

 Unable to determine electronic state:  an orbital has unidentified symmetry.
 Alpha  occ. eigenvalues --   -2.62961  -1.62872  -1.62872  -1.59014  -0.34694
 Alpha  occ. eigenvalues --   -0.21534
 Alpha virt. eigenvalues --    0.01178   0.01268   0.01268   0.02002   0.02626
 Alpha virt. eigenvalues --    0.02629   0.02629   0.02635   0.02650   0.04262
 Alpha virt. eigenvalues --    0.04383   0.04383   0.07413   0.07491   0.07491

 Mulliken charges and spin densities:
               1          2
     1  Sc  -0.000000   1.000000
 Sum of Mulliken charges =  -0.00000   1.00000

 Dipole moment (field-independent basis, Debye):
    X=              0.0000    Y=              0.0000    Z=              0.0000  Tot=              0.0000
 Quadrupole moment (field-independent basis, Debye-Ang):
   XX=            -23.3410   YY=            -23.3410   ZZ=            -23.0468
   XY=              0.0000   XZ=              0.0000   YZ=             -0.0000

 1\1\GINC-C465-122\SP\ROCCSD(T)-Full\Gen\Sc1(2)\AANNABE\16-Mar-2018\0\\
 #P ROCCSD(T)=(maxcyc=150, Full)/Gen 5d 7f SCF=(maxcycles=300, NoVarAcc
 , VShift=200) MaxDisk=100GB Pop=Regular Pseudo=Read Guess=Read\\Sc\\0,
 2\Sc,0,0.,0.,0.\\Version=ES64L-G16RevA.03\HF=-46.1275536\MP2=-46.52071
 83\MP3=-46.5386745\PUHF=-46.1275536\PMP2-0=-46.5207183\MP4SDQ=-46.5380
 39\CCSD=-46.5382991\CCSD(T)=-46.5541874\RMSD=6.812e-09\PG=OH [O(Sc1)]\
 \@

 Normal termination of Gaussian 16 at Fri Mar 16 15:02:37 2018.
