 Gaussian 16, Revision A.03,
 Gaussian 16:  ES64L-G16RevA.03 25-Dec-2016

 ----------------------------------------------------------------------
 #P ROCCSD(T)=(maxcyc=150, Full, SaveAmplitudes, ReadAmplitudes)/Gen 5d
  7f SCF=(maxcycles=300) Integral(NoXCTest) MaxDisk=500GB Pop=Regular P
 seudo=Read Guess=Read IOp(5/15=2)
 ----------------------------------------------------------------------

 ---
 CrH
 ---
 Symbolic Z-matrix:
 Charge =  0 Multiplicity = 6

                         Standard orientation:
 ---------------------------------------------------------------------
 Center     Atomic      Atomic             Coordinates (Angstroms)
 Number     Number       Type             X           Y           Z
 ---------------------------------------------------------------------
      1         24           0        0.000000    0.000000    0.040000
      2          1           0        0.000000    0.000000   -0.960000
 ---------------------------------------------------------------------

 SCF Done:  E(ROHF) =  -86.1140906876     A.U. after   43 cycles
 E2 =    -0.5869094145D+00 EUMP2 =    -0.86701000102059D+02
 CCSD(T)
 CCSD(T)= -0.86714702969D+02

 The electronic state is 6-SG.
 Alpha  occ. eigenvalues --   -3.74679  -2.47790  -2.45524  -2.45524  -0.50381
 Alpha  occ. eigenvalues --   -0.39697  -0.39697  -0.36508  -0.36508  -0.25667
 Alpha virt. eigenvalues --    0.01796   0.01796   0.01807   0.02323   0.06225
 Alpha virt. eigenvalues --    0.06225   0.06308   0.07987   0.07991   0.07991
 Alpha virt. eigenvalues --    0.08083   0.08083   0.09625   0.20282   0.22048

 Mulliken charges and spin densities:
               1          2
     1  Cr   0.567394   4.927734
     2  H   -0.567394   0.072266
 Sum of Mulliken charges =  -0.00000   5.00000

 Dipole moment (field-independent basis, Debye):
    X=              0.0000    Y=              0.0000    Z=              1.6380  Tot=              1.6380
 Quadrupole moment (field-independent basis, Debye-Ang):
   XX=            -16.8175   YY=            -16.8175   ZZ=            -17.7134
   XY=              0.0000   XZ=              0.0000   YZ=              0.0000

 \\#P ROCCSD(T)=(maxcyc=150, Full, SaveAmplitudes, ReadAmplitudes)/Gen
 6\CCSD=-86.6943155\CCSD(T)=-86.714703\RMSD=3.636e-09\PG=C*V [C*(H1Cr1)
 Normal termination of Gaussian 16 at Sun Feb 25 17:03:50 2018.
