 Gaussian 16, Revision A.03,
 Gaussian 16:  ES64L-G16RevA.03 25-Dec-2016

 ----------------------------------------------------------------------
 #P ROCCSD(T)=(maxcyc=150, Full, SaveAmplitudes, ReadAmplitudes)/Gen 5d
  7f SCF=(maxcycles=300) Integral(NoXCTest) MaxDisk=500GB Pop=Regular P
 seudo=Read Guess=Read
 ----------------------------------------------------------------------

 ---
 MnH
 ---
 Symbolic Z-matrix:
 Charge =  0 Multiplicity = 7

                         Standard orientation:
 ---------------------------------------------------------------------
 Center     Atomic      Atomic             Coordinates (Angstroms)
 Number     Number       Type             X           Y           Z
 ---------------------------------------------------------------------
      1         25           0        0.000000    0.000000    0.038462
      2          1           0        0.000000    0.000000   -0.961538
 ---------------------------------------------------------------------

 SCF Done:  E(ROHF) =  -103.777043322     A.U. after   22 cycles
 E2 =    -0.6464636570D+00 EUMP2 =    -0.10442350697873D+03
 CCSD(T)
 CCSD(T)= -0.10443472574D+03

 The electronic state is 7-SG.
 Alpha  occ. eigenvalues --   -4.23550  -2.80617  -2.78194  -2.78194  -0.71620
 Alpha  occ. eigenvalues --   -0.64250  -0.64250  -0.63034  -0.63034  -0.39161
 Alpha  occ. eigenvalues --   -0.21422
 Alpha virt. eigenvalues --    0.01141   0.01141   0.01717   0.03367   0.04959
 Alpha virt. eigenvalues --    0.04959   0.05808   0.05808   0.05816   0.06047
 Alpha virt. eigenvalues --    0.06047   0.07726   0.14157   0.16463   0.17511

 Mulliken charges and spin densities:
               1          2
     1  Mn   0.721718   5.851952
     2  H   -0.721718   0.148048
 Sum of Mulliken charges =  -0.00000   6.00000

 Dipole moment (field-independent basis, Debye):
    X=              0.0000    Y=              0.0000    Z=             -1.2796  Tot=              1.2796
 Quadrupole moment (field-independent basis, Debye-Ang):
   XX=            -16.2361   YY=            -16.2361   ZZ=            -25.8854
   XY=              0.0000   XZ=              0.0000   YZ=              0.0000

 \\#P ROCCSD(T)=(maxcyc=150, Full, SaveAmplitudes, ReadAmplitudes)/Gen
 7770433\PMP2-0=-104.423507\CCSD=-104.4155871\CCSD(T)=-104.4347257\RMSD
 Normal termination of Gaussian 16 at Sun Feb 25 18:02:59 2018.
