 Gaussian 16, Revision A.03,
 Gaussian 16:  ES64L-G16RevA.03 25-Dec-2016

 ----------------------------------------------------------------------
 #P ROCCSD(T)=(maxcyc=150, Full)/Gen 5d 7f SCF=(maxcycles=300) Integral
 (NoXCTest) MaxDisk=500GB Pop=Regular Pseudo=Read
 ----------------------------------------------------------------------

 ---
 ScH
 ---
 Symbolic Z-matrix:
 Charge =  0 Multiplicity = 1

                         Standard orientation:
 ---------------------------------------------------------------------
 Center     Atomic      Atomic             Coordinates (Angstroms)
 Number     Number       Type             X           Y           Z
 ---------------------------------------------------------------------
      1         21           0        0.000000    0.000000    0.045455
      2          1           0        0.000000    0.000000   -0.954545
 ---------------------------------------------------------------------

 SCF Done:  E(ROHF) =  -46.3867657278     A.U. after   12 cycles
 E2 =    -0.4160974547D+00 EUMP2 =    -0.46802863182523D+02
 CCSD(T)
 CCSD(T)= -0.46841983771D+02

 The electronic state is 1-SG.
 Alpha  occ. eigenvalues --   -2.60332  -1.66746  -1.56536  -1.56536  -0.47757
 Alpha  occ. eigenvalues --   -0.21272
 Alpha virt. eigenvalues --    0.01257   0.01413   0.01413   0.02357   0.03459
 Alpha virt. eigenvalues --    0.03916   0.03916   0.03956   0.03956   0.04700
 Alpha virt. eigenvalues --    0.05036   0.05036   0.09621   0.10938   0.10938

 Mulliken charges and spin densities:
               1          2
     1  Sc   0.473294   0.000000
     2  H   -0.473294   0.000000
 Sum of Mulliken charges =  -0.00000   0.00000

 Dipole moment (field-independent basis, Debye):
    X=              0.0000    Y=              0.0000    Z=              1.2913  Tot=              1.2913
 Quadrupole moment (field-independent basis, Debye-Ang):
   XX=            -23.5228   YY=            -23.5228   ZZ=            -22.0961
   XY=              0.0000   XZ=              0.0000   YZ=              0.0000

 P ROCCSD(T)=(maxcyc=150, Full)/Gen 5d 7f SCF=(maxcycles=300) Integral(
 Q=-46.8251632\CCSD=-46.8249941\CCSD(T)=-46.8419838\RMSD=1.639e-09\PG=C
 Normal termination of Gaussian 16 at Mon Feb 12 15:02:31 2018.
