 Gaussian 16, Revision A.03,
 Gaussian 16:  ES64L-G16RevA.03 25-Dec-2016

 ----------------------------------------------------------------------
 #P ROCCSD(T)=(maxcyc=150, Full, SaveAmplitudes, ReadAmplitudes)/Gen 5d
  7f SCF=(maxcycles=300) Integral(NoXCTest, DKHSO) MaxDisk=500GB Pop=Re
 gular Guess=Read
 ----------------------------------------------------------------------

 ---
 ScO
 ---
 Symbolic Z-matrix:
 Charge =  0 Multiplicity = 2

                         Standard orientation:
 ---------------------------------------------------------------------
 Center     Atomic      Atomic             Coordinates (Angstroms)
 Number     Number       Type             X           Y           Z
 ---------------------------------------------------------------------
      1         21           0        0.000000    0.000000    0.551724
      2          8           0        0.000000    0.000000   -1.448276
 ---------------------------------------------------------------------

 SCF Done:  E(ROHF) =  -838.210488742     A.U. after   18 cycles
 E2 =    -0.1139897786D+01 EUMP2 =    -0.83935038652721D+03
 CCSD(T)
 CCSD(T)= -0.83937555001D+03

 The electronic state is 2-SG.
 Alpha  occ. eigenvalues -- -166.96545 -20.47036 -19.41994 -15.84174 -15.84174
 Alpha  occ. eigenvalues --  -15.84037  -2.72493  -1.70342  -1.70342  -1.69772
 Alpha  occ. eigenvalues --   -1.08445  -0.38952  -0.34639  -0.34639  -0.28378
 Alpha virt. eigenvalues --   -0.01332  -0.01332   0.00516   0.01619   0.02382
 Alpha virt. eigenvalues --    0.02382   0.02525   0.02525   0.03079   0.03303
 Alpha virt. eigenvalues --    0.03303   0.04053   0.04501   0.04501   0.08628

 Mulliken charges and spin densities:
               1          2
     1  Sc   1.194864   0.981256
     2  O   -1.194864   0.018744
 Sum of Mulliken charges =  -0.00000   1.00000

 Dipole moment (field-independent basis, Debye):
    X=              0.0000    Y=             -0.0000    Z=              7.4639  Tot=              7.4639
 Quadrupole moment (field-independent basis, Debye-Ang):
   XX=            -22.5781   YY=            -22.5781   ZZ=            -35.4508
   XY=              0.0000   XZ=              0.0000   YZ=             -0.0000

 \\#P ROCCSD(T)=(maxcyc=150, Full, SaveAmplitudes, ReadAmplitudes)/Gen
 887\PMP2-0=-839.3503865\CCSD=-839.3213145\CCSD(T)=-839.37555\RMSD=2.88
 Normal termination of Gaussian 16 at Tue Feb 20 23:31:05 2018.
