 Gaussian 16, Revision A.03,
 Gaussian 16:  ES64L-G16RevA.03 25-Dec-2016

 ----------------------------------------------------------------------
 #P ROCCSD(T)=(MaxCyc=150, Full)/Gen SCF=(maxcycle=400) Pseudo=Read Int
 egral(NoXCTest) Pop=Regular MaxDisk=500GB
 ----------------------------------------------------------------------

 ---
 FeO
 ---
 Symbolic Z-matrix:
 Charge =  0 Multiplicity = 5

                         Standard orientation:
 ---------------------------------------------------------------------
 Center     Atomic      Atomic             Coordinates (Angstroms)
 Number     Number       Type             X           Y           Z
 ---------------------------------------------------------------------
      1         26           0        0.000000    0.000000    0.282353
      2          8           0        0.000000    0.000000   -0.917647
 ---------------------------------------------------------------------

 SCF Done:  E(ROHF) =  -138.523193291     A.U. after   32 cycles
 E2 =    -0.1060448059D+01 EUMP2 =    -0.13958364135033D+03
 CCSD(T)
 CCSD(T)= -0.13957334397D+03

 Unable to determine electronic state:  partially filled degenerate orbitals.
 Alpha  occ. eigenvalues --   -4.35449  -2.98656  -2.89888  -2.89888  -1.30707
 Alpha  occ. eigenvalues --   -0.80256  -0.80256  -0.66940  -0.60940  -0.56500
 Alpha  occ. eigenvalues --   -0.41930  -0.41930  -0.29347
 Alpha virt. eigenvalues --    0.02363   0.02691   0.02691   0.03062   0.07328
 Alpha virt. eigenvalues --    0.08595   0.08595   0.09962   0.09993   0.10201
 Alpha virt. eigenvalues --    0.10201   0.11504   0.12068   0.17759   0.26577

 Mulliken charges and spin densities:
               1          2
     1  Fe   0.570866   3.709031
     2  O   -0.570866   0.290969
 Sum of Mulliken charges =  -0.00000   4.00000

 Dipole moment (field-independent basis, Debye):
    X=              0.0000    Y=              0.0000    Z=              1.4935  Tot=              1.4935
 Quadrupole moment (field-independent basis, Debye-Ang):
   XX=            -19.4848   YY=            -19.4848   ZZ=            -21.2801
   XY=              0.0000   XZ=              0.0000   YZ=              0.0000

 \\#P ROCCSD(T)=(MaxCyc=150, Full)/Gen SCF=(maxcycle=400) Pseudo=Read I
 38985\CCSD=-139.5301626\CCSD(T)=-139.573344\RMSD=8.134e-09\PG=C*V [C*(
 Normal termination of Gaussian 16 at Sat Mar 24 00:58:47 2018.
