 Gaussian 16, Revision A.03,
 Gaussian 16:  ES64L-G16RevA.03 25-Dec-2016

 ----------------------------------------------------------------------
 #P ROCCSD(T)=(MaxCyc=150, Full)/Gen SCF=(maxcycle=400) Pseudo=Read Int
 egral(NoXCTest) Pop=Regular MaxDisk=500GB
 ----------------------------------------------------------------------

 ---
 FeO
 ---
 Symbolic Z-matrix:
 Charge =  0 Multiplicity = 5

                         Standard orientation:
 ---------------------------------------------------------------------
 Center     Atomic      Atomic             Coordinates (Angstroms)
 Number     Number       Type             X           Y           Z
 ---------------------------------------------------------------------
      1         26           0        0.000000    0.000000    0.282353
      2          8           0        0.000000    0.000000   -0.917647
 ---------------------------------------------------------------------

 SCF Done:  E(ROHF) =  -138.527045735     A.U. after   33 cycles
 E2 =    -0.1109229019D+01 EUMP2 =    -0.13963627475400D+03
 CCSD(T)
 CCSD(T)= -0.13962364824D+03

 Unable to determine electronic state:  partially filled degenerate orbitals.
 Alpha  occ. eigenvalues --   -4.35366  -2.98584  -2.89845  -2.89845  -1.30644
 Alpha  occ. eigenvalues --   -0.80256  -0.80256  -0.66921  -0.60928  -0.56491
 Alpha  occ. eigenvalues --   -0.41926  -0.41926  -0.29332
 Alpha virt. eigenvalues --    0.02240   0.02449   0.02449   0.02815   0.05899
 Alpha virt. eigenvalues --    0.06542   0.06542   0.06700   0.06710   0.08319
 Alpha virt. eigenvalues --    0.08319   0.08901   0.11044   0.16080   0.19867

 Mulliken charges and spin densities:
               1          2
     1  Fe   0.869420   3.695530
     2  O   -0.869420   0.304470
 Sum of Mulliken charges =  -0.00000   4.00000

 Dipole moment (field-independent basis, Debye):
    X=              0.0000    Y=              0.0000    Z=              1.4848  Tot=              1.4848
 Quadrupole moment (field-independent basis, Debye-Ang):
   XX=            -19.4842   YY=            -19.4842   ZZ=            -21.2575
   XY=              0.0000   XZ=              0.0000   YZ=              0.0000

 \\#P ROCCSD(T)=(MaxCyc=150, Full)/Gen SCF=(maxcycle=400) Pseudo=Read I
 16643\CCSD=-139.5783157\CCSD(T)=-139.6236482\RMSD=3.358e-09\PG=C*V [C*
 Normal termination of Gaussian 16 at Sat Mar 24 02:50:38 2018.
