 Gaussian 16, Revision A.03,
 Gaussian 16:  ES64L-G16RevA.03 25-Dec-2016

 ----------------------------------------------------------------------
 #P ROCCSD(T)=(MaxCyc=150, Full)/Gen SCF=(maxcycle=400) Pseudo=Read Int
 egral(NoXCTest) Pop=Regular MaxDisk=500GB Guess=Read
 ----------------------------------------------------------------------

 ---
 FeO
 ---
 Symbolic Z-matrix:
 Charge =  0 Multiplicity = 5

                         Standard orientation:
 ---------------------------------------------------------------------
 Center     Atomic      Atomic             Coordinates (Angstroms)
 Number     Number       Type             X           Y           Z
 ---------------------------------------------------------------------
      1         26           0        0.000000    0.000000    0.376471
      2          8           0        0.000000    0.000000   -1.223529
 ---------------------------------------------------------------------

 SCF Done:  E(ROHF) =  -138.486263027     A.U. after    1 cycles
 E2 =    -0.9980589876D+00 EUMP2 =    -0.13948432201455D+03
 CCSD(T)
 CCSD(T)= -0.13951162550D+03

 Unable to determine electronic state:  partially filled degenerate orbitals.
 Alpha  occ. eigenvalues --   -4.36281  -3.02683  -2.95496  -2.95496  -1.14558
 Alpha  occ. eigenvalues --   -0.68387  -0.68387  -0.64536  -0.64310  -0.59498
 Alpha  occ. eigenvalues --   -0.35645  -0.34901  -0.34901
 Alpha virt. eigenvalues --   -0.04644   0.01884   0.01884   0.02048   0.04026
 Alpha virt. eigenvalues --    0.07314   0.07314   0.08828   0.09608   0.09639
 Alpha virt. eigenvalues --    0.10749   0.10749   0.14198   0.14791   0.24987

 Mulliken charges and spin densities:
               1          2
     1  Fe   1.152072   3.837547
     2  O   -1.152072   0.162453
 Sum of Mulliken charges =  -0.00000   4.00000

 Dipole moment (field-independent basis, Debye):
    X=              0.0000    Y=              0.0000    Z=              8.7057  Tot=              8.7057
 Quadrupole moment (field-independent basis, Debye-Ang):
   XX=            -18.3414   YY=            -18.3414   ZZ=            -22.3157
   XY=              0.0000   XZ=              0.0000   YZ=              0.0000

 \\#P ROCCSD(T)=(MaxCyc=150, Full)/Gen SCF=(maxcycle=400) Pseudo=Read I
 -139.476014\CCSD=-139.46443\CCSD(T)=-139.5116255\RMSD=6.214e-09\PG=C*V
 Normal termination of Gaussian 16 at Sun Mar 25 00:46:21 2018.
