 Gaussian 16, Revision A.03,
 Gaussian 16:  ES64L-G16RevA.03 25-Dec-2016

 ----------------------------------------------------------------------
 #P ROCCSD(T)=(MaxCyc=150, Full)/Gen SCF=(maxcycle=400) Pseudo=Read Int
 egral(NoXCTest) Pop=Regular MaxDisk=500GB
 ----------------------------------------------------------------------

 ---
 FeO
 ---
 Symbolic Z-matrix:
 Charge =  0 Multiplicity = 5

                         Standard orientation:
 ---------------------------------------------------------------------
 Center     Atomic      Atomic             Coordinates (Angstroms)
 Number     Number       Type             X           Y           Z
 ---------------------------------------------------------------------
      1         26           0        0.000000    0.000000    0.376471
      2          8           0        0.000000    0.000000   -1.223529
 ---------------------------------------------------------------------

 SCF Done:  E(ROHF) =  -138.489329367     A.U. after   30 cycles
 E2 =    -0.1045582920D+01 EUMP2 =    -0.13953491228694D+03
 CCSD(T)
 CCSD(T)= -0.13955964941D+03

 Unable to determine electronic state:  partially filled degenerate orbitals.
 Alpha  occ. eigenvalues --   -4.36253  -3.02654  -2.95472  -2.95472  -1.14510
 Alpha  occ. eigenvalues --   -0.68385  -0.68385  -0.64529  -0.64307  -0.59497
 Alpha  occ. eigenvalues --   -0.35631  -0.34901  -0.34901
 Alpha virt. eigenvalues --   -0.04638   0.01590   0.01590   0.01775   0.03581
 Alpha virt. eigenvalues --    0.06269   0.06269   0.06462   0.06472   0.06654
 Alpha virt. eigenvalues --    0.07960   0.07960   0.12019   0.13638   0.19186

 Mulliken charges and spin densities:
               1          2
     1  Fe   1.144407   3.849721
     2  O   -1.144407   0.150279
 Sum of Mulliken charges =  -0.00000   4.00000

 Dipole moment (field-independent basis, Debye):
    X=              0.0000    Y=              0.0000    Z=              8.6970  Tot=              8.6970
 Quadrupole moment (field-independent basis, Debye-Ang):
   XX=            -18.3402   YY=            -18.3402   ZZ=            -22.2941
   XY=              0.0000   XZ=              0.0000   YZ=              0.0000

 \\#P ROCCSD(T)=(MaxCyc=150, Full)/Gen SCF=(maxcycle=400) Pseudo=Read I
 12466\CCSD=-139.5101494\CCSD(T)=-139.5596494\RMSD=7.945e-09\PG=C*V [C*
 Normal termination of Gaussian 16 at Sun Mar 25 02:50:58 2018.
