 Gaussian 16, Revision A.03,
 Gaussian 16:  ES64L-G16RevA.03 25-Dec-2016

 ----------------------------------------------------------------------
 #P ROCCSD(T)=(maxcyc=150, Full, SaveAmplitudes, ReadAmplitudes)/Gen 5d
  7f SCF=(maxcycles=300) Integral(NoXCTest) MaxDisk=500GB Pop=Regular P
 seudo=Read Guess=Read
 ----------------------------------------------------------------------

 ---
 TiO
 ---
 Symbolic Z-matrix:
 Charge =  0 Multiplicity = 3

                         Standard orientation:
 ---------------------------------------------------------------------
 Center     Atomic      Atomic             Coordinates (Angstroms)
 Number     Number       Type             X           Y           Z
 ---------------------------------------------------------------------
      1         22           0        0.000000    0.000000    0.480000
      2          8           0        0.000000    0.000000   -1.320000
 ---------------------------------------------------------------------

 SCF Done:  E(ROHF) =  -73.5149817772     A.U. after   23 cycles
 E2 =    -0.7933547956D+00 EUMP2 =    -0.74308336572824D+02
 CCSD(T)
 CCSD(T)= -0.74340700455D+02

 Unable to determine electronic state:  an orbital has unidentified symmetry.
 Alpha  occ. eigenvalues --   -3.09294  -1.94872  -1.94872  -1.90696  -1.12221
 Alpha  occ. eigenvalues --   -0.50178  -0.43312  -0.39474  -0.39474  -0.28793
 Alpha virt. eigenvalues --   -0.00534  -0.00534   0.00713   0.02063   0.03086
 Alpha virt. eigenvalues --    0.03086   0.03583   0.03668   0.03703   0.04316
 Alpha virt. eigenvalues --    0.04316   0.04661   0.07405   0.09943   0.10804

 Mulliken charges and spin densities:
               1          2
     1  Ti   1.037636   1.975834
     2  O   -1.037636   0.024166
 Sum of Mulliken charges =  -0.00000   2.00000

 Dipole moment (field-independent basis, Debye):
    X=              0.0000    Y=              0.0000    Z=              6.0484  Tot=              6.0484
 Quadrupole moment (field-independent basis, Debye-Ang):
   XX=            -21.5367   YY=            -21.5367   ZZ=            -30.4234
   XY=              0.0000   XZ=              0.0000   YZ=              0.0000

 \\#P ROCCSD(T)=(maxcyc=150, Full, SaveAmplitudes, ReadAmplitudes)/Gen
 -0=-74.3083366\CCSD=-74.28629\CCSD(T)=-74.3407005\RMSD=4.479e-09\PG=C*
 Normal termination of Gaussian 16 at Mon Mar 12 15:42:39 2018.
