 Gaussian 16, Revision A.03,
 Gaussian 16:  ES64L-G16RevA.03 25-Dec-2016

 ----------------------------------------------------------------------
 #P ROCCSD(T)=(maxcyc=150, Full, SaveAmplitudes, ReadAmplitudes)/Gen 5d
  7f SCF=(maxcycles=300) Integral(NoXCTest, DKHSO) MaxDisk=500GB Pop=Re
 gular Guess=Read IOp(5/15=2)
 ----------------------------------------------------------------------

 ---
 MnO
 ---
 Symbolic Z-matrix:
 Charge =  0 Multiplicity = 6

                         Standard orientation:
 ---------------------------------------------------------------------
 Center     Atomic      Atomic             Coordinates (Angstroms)
 Number     Number       Type             X           Y           Z
 ---------------------------------------------------------------------
      1         25           0        0.000000    0.000000    0.412121
      2          8           0        0.000000    0.000000   -1.287879
 ---------------------------------------------------------------------

 SCF Done:  E(ROHF) =  -1232.22219271     A.U. after   24 cycles
 E2 =    -0.1341460421D+01 EUMP2 =    -0.12335636531282D+04
 CCSD(T)
 CCSD(T)= -0.12335797727D+04

 The electronic state is 6-SG.
 Alpha  occ. eigenvalues -- -242.50193 -29.60330 -24.95978 -24.95978 -24.95347
 Alpha  occ. eigenvalues --  -20.44359  -4.08333  -2.73757  -2.73757  -2.73088
 Alpha  occ. eigenvalues --   -1.10732  -0.64257  -0.64257  -0.63467  -0.63467
 Alpha  occ. eigenvalues --   -0.59222  -0.33914  -0.33914  -0.33855
 Alpha virt. eigenvalues --   -0.04524   0.01579   0.01579   0.01865   0.03845
 Alpha virt. eigenvalues --    0.06691   0.06691   0.08217   0.08445   0.08445
 Alpha virt. eigenvalues --    0.09603   0.09603   0.13229   0.14044   0.23024

 Mulliken charges and spin densities:
               1          2
     1  Mn   1.154613   4.895899
     2  O   -1.154613   0.104101
 Sum of Mulliken charges =  -0.00000   5.00000

 Dipole moment (field-independent basis, Debye):
    X=              0.0000    Y=              0.0000    Z=              9.0820  Tot=              9.0820
 Quadrupole moment (field-independent basis, Debye-Ang):
   XX=            -19.2044   YY=            -19.2044   ZZ=            -24.1496
   XY=              0.0000   XZ=              0.0000   YZ=              0.0000

 \\#P ROCCSD(T)=(maxcyc=150, Full, SaveAmplitudes, ReadAmplitudes)/Gen
 3.5473041\CCSD=-1233.5367637\CCSD(T)=-1233.5797727\RMSD=6.135e-09\PG=C
 Normal termination of Gaussian 16 at Wed Mar  7 01:18:13 2018.
