 Gaussian 16, Revision A.03,
 Gaussian 16:  ES64L-G16RevA.03 25-Dec-2016

 ----------------------------------------------------------------------
 #P ROCCSD(T)=(maxcyc=150, Full, SaveAmplitudes, ReadAmplitudes)/Gen 5d
  7f SCF=(maxcycles=300) Integral(NoXCTest) MaxDisk=500GB Pop=Regular P
 seudo=Read Guess=Read IOp(5/15=2)
 ----------------------------------------------------------------------

 ---
 CrO
 ---
 Symbolic Z-matrix:
 Charge =  0 Multiplicity = 5

                         Standard orientation:
 ---------------------------------------------------------------------
 Center     Atomic      Atomic             Coordinates (Angstroms)
 Number     Number       Type             X           Y           Z
 ---------------------------------------------------------------------
      1         24           0        0.000000    0.000000    0.450000
      2          8           0        0.000000    0.000000   -1.350000
 ---------------------------------------------------------------------

 SCF Done:  E(ROHF) =  -101.839417579     A.U. after   59 cycles
 E2 =    -0.8482982097D+00 EUMP2 =    -0.10268771578905D+03
 CCSD(T)
 CCSD(T)= -0.10274158709D+03

 Unable to determine electronic state:  an orbital has unidentified symmetry.
 Alpha  occ. eigenvalues --   -3.75316  -2.51485  -2.46579  -2.45715  -1.09820
 Alpha  occ. eigenvalues --   -0.57210  -0.55770  -0.55085  -0.51912  -0.34211
 Alpha  occ. eigenvalues --   -0.32850  -0.32695
 Alpha virt. eigenvalues --   -0.04640   0.00700   0.01368   0.01767   0.03725
 Alpha virt. eigenvalues --    0.04960   0.06199   0.07414   0.07422   0.07634
 Alpha virt. eigenvalues --    0.08342   0.08725   0.12948   0.13805   0.15527

 Mulliken charges and spin densities:
               1          2
     1  Cr   1.169610   3.939368
     2  O   -1.169610   0.060632
 Sum of Mulliken charges =  -0.00000   4.00000

 Dipole moment (field-independent basis, Debye):
    X=              0.0000    Y=              0.0000    Z=              9.7623  Tot=              9.7623
 Quadrupole moment (field-independent basis, Debye-Ang):
   XX=            -19.6345   YY=            -18.7911   ZZ=            -24.0182
   XY=              0.0000   XZ=              0.0000   YZ=              0.0000

 \\#P ROCCSD(T)=(maxcyc=150, Full, SaveAmplitudes, ReadAmplitudes)/Gen
 SD=-102.6899183\CCSD(T)=-102.7415871\RMSD=4.304e-09\PG=C*V [C*(O1Cr1)]
 Normal termination of Gaussian 16 at Fri Mar  9 16:24:41 2018.
