 Gaussian 16, Revision A.03,
 Gaussian 16:  ES64L-G16RevA.03 25-Dec-2016

 ----------------------------------------------------------------------
 #P ROCCSD(T)=(maxcyc=150, Full, SaveAmplitudes, ReadAmplitudes)/Gen 5d
  7f SCF=(maxcycles=300, VShift=400) Integral(NoXCTest) MaxDisk=500GB P
 op=Full Pseudo=Read Guess=Read IOp(5/15=2)
 ----------------------------------------------------------------------

 ---
 ScH
 ---
 Symbolic Z-matrix:
 Charge =  0 Multiplicity = 1

                         Standard orientation:
 ---------------------------------------------------------------------
 Center     Atomic      Atomic             Coordinates (Angstroms)
 Number     Number       Type             X           Y           Z
 ---------------------------------------------------------------------
      1         21           0        0.000000    0.000000    0.086364
      2          1           0        0.000000    0.000000   -1.813636
 ---------------------------------------------------------------------

 SCF Done:  E(ROHF) =  -46.6732964693     A.U. after   25 cycles
 E2 =    -0.4054784277D+00 EUMP2 =    -0.47078774896997D+02
 CCSD(T)
 CCSD(T)= -0.47125451473D+02

 The electronic state is 1-SG.
 Alpha  occ. eigenvalues --   -2.69429  -1.67899  -1.67899  -1.67757  -0.39235
 Alpha  occ. eigenvalues --   -0.23570
 Alpha virt. eigenvalues --    0.01077   0.01077   0.01448   0.02240   0.03567
 Alpha virt. eigenvalues --    0.03809   0.03809   0.03931   0.03931   0.04430
 Alpha virt. eigenvalues --    0.04430   0.04553   0.07861   0.07861   0.08791

 Mulliken charges and spin densities:
               1          2
     1  Sc   0.333497   0.000000
     2  H   -0.333497   0.000000
 Sum of Mulliken charges =   0.00000   0.00000

 Dipole moment (field-independent basis, Debye):
    X=              0.0000    Y=              0.0000    Z=              1.8236  Tot=              1.8236
 Quadrupole moment (field-independent basis, Debye-Ang):
   XX=            -23.0028   YY=            -23.0028   ZZ=            -27.5918
   XY=              0.0000   XZ=              0.0000   YZ=              0.0000

 P ROCCSD(T)=(maxcyc=150, Full, SaveAmplitudes, ReadAmplitudes)/Gen 5d
 .1068481\CCSD=-47.1068113\CCSD(T)=-47.1254515\RMSD=8.716e-09\PG=C*V [C
 Normal termination of Gaussian 16 at Thu Apr 19 07:46:16 2018.
