 Gaussian 16, Revision A.03,
 Gaussian 16:  ES64L-G16RevA.03 25-Dec-2016

 ----------------------------------------------------------------------
 #P ROCCSD(T)=(maxcyc=150, Full, SaveAmplitudes, ReadAmplitudes)/Gen 5d
  7f SCF=(maxcycles=300) Integral(NoXCTest) MaxDisk=500GB Pop=Regular P
 seudo=Read Guess=Read
 ----------------------------------------------------------------------

 ---
 CrO
 ---
 Symbolic Z-matrix:
 Charge =  0 Multiplicity = 5

                         Standard orientation:
 ---------------------------------------------------------------------
 Center     Atomic      Atomic             Coordinates (Angstroms)
 Number     Number       Type             X           Y           Z
 ---------------------------------------------------------------------
      1         24           0        0.000000    0.000000    0.300000
      2          8           0        0.000000    0.000000   -0.900000
 ---------------------------------------------------------------------

 SCF Done:  E(ROHF) =  -101.568670244     A.U. after   24 cycles
 E2 =    -0.9207548133D+00 EUMP2 =    -0.10248942505752D+03
 CCSD(T)
 CCSD(T)= -0.10249360811D+03

 Unable to determine electronic state:  an orbital has unidentified symmetry.
 Alpha  occ. eigenvalues --   -3.73045  -2.51579  -2.47180  -2.43456  -1.26831
 Alpha  occ. eigenvalues --   -0.75060  -0.69090  -0.65603  -0.50398  -0.50308
 Alpha  occ. eigenvalues --   -0.30194  -0.26332
 Alpha virt. eigenvalues --    0.01389   0.02087   0.02568   0.02580   0.04841
 Alpha virt. eigenvalues --    0.05039   0.05466   0.05471   0.05509   0.05607
 Alpha virt. eigenvalues --    0.08644   0.08765   0.10292   0.13927   0.14971

 Mulliken charges and spin densities:
               1          2
     1  Cr   0.740916   3.834506
     2  O   -0.740916   0.165494
 Sum of Mulliken charges =  -0.00000   4.00000

 Dipole moment (field-independent basis, Debye):
    X=              0.0000    Y=              0.0000    Z=              0.2366  Tot=              0.2366
 Quadrupole moment (field-independent basis, Debye-Ang):
   XX=            -22.8625   YY=            -19.9654   ZZ=            -22.8423
   XY=              0.0000   XZ=              0.0000   YZ=              0.0000

 \\#P ROCCSD(T)=(maxcyc=150, Full, SaveAmplitudes, ReadAmplitudes)/Gen
 MP2-0=-102.4894251\CCSD=-102.4530457\CCSD(T)=-102.4936081\RMSD=4.195e-
 Normal termination of Gaussian 16 at Fri Mar  9 17:47:58 2018.
