 Gaussian 16, Revision A.03,
 Gaussian 16:  ES64L-G16RevA.03 25-Dec-2016

 ----------------------------------------------------------------------
 #P ROCCSD(T)=(MaxCyc=150, Full)/Gen SCF=(maxcycle=400) Pseudo=Read Int
 egral(NoXCTest) Pop=Regular MaxDisk=500GB Guess=Read IOp(5/15=2)
 ----------------------------------------------------------------------

 ---
 NiO
 ---
 Symbolic Z-matrix:
 Charge =  0 Multiplicity = 3

                         Standard orientation:
 ---------------------------------------------------------------------
 Center     Atomic      Atomic             Coordinates (Angstroms)
 Number     Number       Type             X           Y           Z
 ---------------------------------------------------------------------
      1         28           0        0.000000    0.000000    0.311111
      2          8           0        0.000000    0.000000   -1.088889
 ---------------------------------------------------------------------

 SCF Done:  E(ROHF) =  -184.859737326     A.U. after   22 cycles
 E2 =    -0.1223088997D+01 EUMP2 =    -0.18608282632219D+03
 CCSD(T)
 CCSD(T)= -0.18608513457D+03

 The electronic state is 3-SG.
 Alpha  occ. eigenvalues --   -5.01900  -3.47661  -3.37839  -3.37839  -1.22499
 Alpha  occ. eigenvalues --   -0.79675  -0.79675  -0.70642  -0.67913  -0.67913
 Alpha  occ. eigenvalues --   -0.41481  -0.41481  -0.37419
 Alpha virt. eigenvalues --   -0.03333   0.02626   0.02626   0.02933   0.04168
 Alpha virt. eigenvalues --    0.08970   0.08970   0.11034   0.12530   0.12530
 Alpha virt. eigenvalues --    0.13209   0.13209   0.15311   0.16896   0.26373

 Mulliken charges and spin densities:
               1          2
     1  Ni   1.096960   1.776171
     2  O   -1.096960   0.223829
 Sum of Mulliken charges =  -0.00000   2.00000

 Dipole moment (field-independent basis, Debye):
    X=              0.0000    Y=              0.0000    Z=              6.5339  Tot=              6.5339
 Quadrupole moment (field-independent basis, Debye-Ang):
   XX=            -18.1693   YY=            -18.1693   ZZ=            -19.3204
   XY=              0.0000   XZ=              0.0000   YZ=              0.0000

 \\#P ROCCSD(T)=(MaxCyc=150, Full)/Gen SCF=(maxcycle=400) Pseudo=Read I
 PMP2-0=-186.0828263\MP4SDQ=-186.0563377\CCSD=-186.0295247\CCSD(T)=-186
 Normal termination of Gaussian 16 at Mon Mar 26 16:54:59 2018.
