 Gaussian 16, Revision A.03,
 Gaussian 16:  ES64L-G16RevA.03 25-Dec-2016

 ----------------------------------------------------------------------
 #P ROCCSD(T)=(MaxCyc=150, Full)/Gen SCF=(maxcycle=400) Pseudo=Read Int
 egral(NoXCTest) Pop=Regular MaxDisk=500GB Guess=Read IOp(5/15=2)
 ----------------------------------------------------------------------

 ---
 NiO
 ---
 Symbolic Z-matrix:
 Charge =  0 Multiplicity = 3

                         Standard orientation:
 ---------------------------------------------------------------------
 Center     Atomic      Atomic             Coordinates (Angstroms)
 Number     Number       Type             X           Y           Z
 ---------------------------------------------------------------------
      1         28           0        0.000000    0.000000    0.311111
      2          8           0        0.000000    0.000000   -1.088889
 ---------------------------------------------------------------------

 SCF Done:  E(ROHF) =  -184.863543408     A.U. after   18 cycles
 E2 =    -0.1280969446D+01 EUMP2 =    -0.18614451285430D+03
 CCSD(T)
 CCSD(T)= -0.18614436993D+03

 The electronic state is 3-SG.
 Alpha  occ. eigenvalues --   -5.01864  -3.47628  -3.37814  -3.37814  -1.22450
 Alpha  occ. eigenvalues --   -0.79676  -0.79676  -0.70639  -0.67917  -0.67917
 Alpha  occ. eigenvalues --   -0.41484  -0.41484  -0.37413
 Alpha virt. eigenvalues --   -0.03327   0.02249   0.02249   0.02620   0.03789
 Alpha virt. eigenvalues --    0.07347   0.07347   0.07678   0.08193   0.08193
 Alpha virt. eigenvalues --    0.09574   0.09574   0.12953   0.15502   0.22647

 Mulliken charges and spin densities:
               1          2
     1  Ni   0.909536   1.781340
     2  O   -0.909536   0.218660
 Sum of Mulliken charges =  -0.00000   2.00000

 Dipole moment (field-independent basis, Debye):
    X=              0.0000    Y=              0.0000    Z=              6.5209  Tot=              6.5209
 Quadrupole moment (field-independent basis, Debye-Ang):
   XX=            -18.1622   YY=            -18.1622   ZZ=            -19.3061
   XY=              0.0000   XZ=              0.0000   YZ=              0.0000

 \\#P ROCCSD(T)=(MaxCyc=150, Full)/Gen SCF=(maxcycle=400) Pseudo=Read I
 PMP2-0=-186.1445129\MP4SDQ=-186.1122473\CCSD=-186.0861373\CCSD(T)=-186
 Normal termination of Gaussian 16 at Mon Mar 26 19:21:23 2018.
