 Gaussian 16, Revision A.03,
 Gaussian 16:  ES64L-G16RevA.03 25-Dec-2016

 ----------------------------------------------------------------------
 #P ROCCSD(T)=(maxcyc=150, Window=(7,0), SaveAmplitudes, ReadAmplitudes
 )/Gen 5d 7f SCF=(maxcycles=300, VShift=400) Integral(NoXCTest, DKHSO)
 MaxDisk=500GB Pop=Regular Guess=Read IOp(5/15=2)
 ----------------------------------------------------------------------

 ---
 CrO
 ---
 Symbolic Z-matrix:
 Charge =  0 Multiplicity = 5

                         Standard orientation:
 ---------------------------------------------------------------------
 Center     Atomic      Atomic             Coordinates (Angstroms)
 Number     Number       Type             X           Y           Z
 ---------------------------------------------------------------------
      1         24           0        0.000000    0.000000    0.450000
      2          8           0        0.000000    0.000000   -1.350000
 ---------------------------------------------------------------------

 SCF Done:  E(ROHF) =  -1124.48751933     A.U. after  112 cycles
 E2 =    -0.8370276220D+00 EUMP2 =    -0.11253245469550D+04
 CCSD(T)
 CCSD(T)= -0.11253700402D+04

 Unable to determine electronic state:  an orbital has unidentified symmetry.
 Alpha  occ. eigenvalues -- -222.23831 -26.83027 -22.46679 -22.46584 -22.46057
 Alpha  occ. eigenvalues --  -20.44551  -3.68972  -2.46020  -2.41794  -2.40920
 Alpha  occ. eigenvalues --   -1.08548  -0.57051  -0.55660  -0.54962  -0.51660
 Alpha  occ. eigenvalues --   -0.34242  -0.32865  -0.32662
 Alpha virt. eigenvalues --   -0.04579   0.00711   0.01370   0.01786   0.03725
 Alpha virt. eigenvalues --    0.04981   0.06197   0.07416   0.07423   0.07637
 Alpha virt. eigenvalues --    0.08350   0.08721   0.12974   0.13955   0.15533

 Mulliken charges and spin densities:
               1          2
     1  Cr   1.170278   3.940199
     2  O   -1.170278   0.059801
 Sum of Mulliken charges =  -0.00000   4.00000

 Dipole moment (field-independent basis, Debye):
    X=              0.0000    Y=              0.0000    Z=              9.7368  Tot=              9.7368
 Quadrupole moment (field-independent basis, Debye-Ang):
   XX=            -20.0152   YY=            -19.1697   ZZ=            -24.3640
   XY=              0.0000   XZ=              0.0000   YZ=              0.0000

 1\1\GINC-C506-022\SP\ROCCSD(T)-RW\Gen\Cr1O1(5)\AANNABE\18-Mar-2018\0\\
 #P ROCCSD(T)=(maxcyc=150, Window=(7,0), SaveAmplitudes, ReadAmplitudes
 )/Gen 5d 7f SCF=(maxcycles=300, VShift=400) Integral(NoXCTest, DKHSO)
 MaxDisk=500GB Pop=Regular Guess=Read IOp(5/15=2)\\CrO\\0,5\Cr,0,0.,0.,
 0.\O,0,0.,0.,1.8\\Version=ES64L-G16RevA.03\HF=-1124.4875193\MP2=-1125.
 324547\MP3=-1125.2688221\PUHF=-1124.4875193\PMP2-0=-1125.324547\MP4SDQ
 =-1125.3314349\CCSD=-1125.319465\CCSD(T)=-1125.3700402\RMSD=4.731e-09\
 PG=C*V [C*(O1Cr1)]\\@

 Normal termination of Gaussian 16 at Sun Mar 18 16:01:37 2018.
