 Gaussian 16, Revision A.03,
 Gaussian 16:  ES64L-G16RevA.03 25-Dec-2016

 ----------------------------------------------------------------------
 #P ROCCSD(T)=(maxcyc=150, Full, SaveAmplitudes, ReadAmplitudes)/Gen 5d
  7f SCF=(maxcycles=300) Integral(NoXCTest) MaxDisk=500GB Pop=Regular P
 seudo=Read Guess=Read
 ----------------------------------------------------------------------

 ---
 ScO
 ---
 Symbolic Z-matrix:
 Charge =  0 Multiplicity = 2

                         Standard orientation:
 ---------------------------------------------------------------------
 Center     Atomic      Atomic             Coordinates (Angstroms)
 Number     Number       Type             X           Y           Z
 ---------------------------------------------------------------------
      1         21           0        0.000000    0.000000    0.551724
      2          8           0        0.000000    0.000000   -1.448276
 ---------------------------------------------------------------------

 SCF Done:  E(ROHF) =  -61.8659919872     A.U. after   17 cycles
 E2 =    -0.7245584651D+00 EUMP2 =    -0.62590550452282D+02
 CCSD(T)
 CCSD(T)= -0.62621832983D+02

 The electronic state is 2-SG.
 Alpha  occ. eigenvalues --   -2.72988  -1.70961  -1.70961  -1.70422  -1.09807
 Alpha  occ. eigenvalues --   -0.38961  -0.34756  -0.34756  -0.28314
 Alpha virt. eigenvalues --   -0.01351  -0.01351   0.00500   0.01610   0.02375
 Alpha virt. eigenvalues --    0.02375   0.02517   0.02517   0.03045   0.03299
 Alpha virt. eigenvalues --    0.03299   0.04042   0.04381   0.04381   0.08645

 Mulliken charges and spin densities:
               1          2
     1  Sc   1.190797   0.981832
     2  O   -1.190797   0.018168
 Sum of Mulliken charges =  -0.00000   1.00000

 Dipole moment (field-independent basis, Debye):
    X=              0.0000    Y=              0.0000    Z=              7.4243  Tot=              7.4243
 Quadrupole moment (field-independent basis, Debye-Ang):
   XX=            -22.1040   YY=            -22.1040   ZZ=            -34.9590
   XY=              0.0000   XZ=              0.0000   YZ=              0.0000

 \\#P ROCCSD(T)=(maxcyc=150, Full, SaveAmplitudes, ReadAmplitudes)/Gen
 992\PMP2-0=-62.5905505\CCSD=-62.5682454\CCSD(T)=-62.621833\RMSD=2.204e
 Normal termination of Gaussian 16 at Wed Feb 21 09:30:13 2018.
