 Gaussian 16, Revision A.03,
 Gaussian 16:  ES64L-G16RevA.03 25-Dec-2016

 ----------------------------------------------------------------------
 #P ROHF/Gen 5d 7f SCF=(maxcycles=300) Integral(NoXCTest, DKHSO) MaxDis
 k=100GB Pop=Regular Guess=Permute IOp(5/15=2)
 ----------------------------------------------------------------------

 --
 Cr
 --
 Symbolic Z-matrix:
 Charge =  0 Multiplicity = 7

                         Standard orientation:
 ---------------------------------------------------------------------
 Center     Atomic      Atomic             Coordinates (Angstroms)
 Number     Number       Type             X           Y           Z
 ---------------------------------------------------------------------
      1         24           0        0.000000    0.000000    0.000000
 ---------------------------------------------------------------------

 SCF Done:  E(ROHF) =  -1049.66339201     A.U. after   34 cycles

 The electronic state is 7-A1G.
 Alpha  occ. eigenvalues -- -222.03293 -26.54362 -22.18077 -22.18077 -22.18077
 Alpha  occ. eigenvalues --   -3.28387  -1.99250  -1.99250  -1.99250  -0.05336
 Alpha  occ. eigenvalues --    0.03303   0.03303   0.03303   0.03303   0.03303
 Alpha virt. eigenvalues --    0.02270   0.02270   0.02270   0.03405   0.07727
 Alpha virt. eigenvalues --    0.07727   0.07727   0.08093   0.08093   0.08093
 Alpha virt. eigenvalues --    0.08093   0.08093   0.22727   0.24828   0.24828

 Mulliken charges and spin densities:
               1          2
     1  Cr   0.000000   6.000000
 Sum of Mulliken charges =   0.00000   6.00000

 Dipole moment (field-independent basis, Debye):
    X=              0.0000    Y=              0.0000    Z=              0.0000  Tot=              0.0000
 Quadrupole moment (field-independent basis, Debye-Ang):
   XX=            -16.7648   YY=            -16.7648   ZZ=            -16.7648
   XY=              0.0000   XZ=             -0.0000   YZ=             -0.0000

 Normal termination of Gaussian 16 at Mon Feb 26 18:56:51 2018.
