 Gaussian 16, Revision A.03,
 Gaussian 16:  ES64L-G16RevA.03 25-Dec-2016

 ----------------------------------------------------------------------
 #P ROCCSD(T)=(maxcyc=150, Window=(6,0), SaveAmplitudes, ReadAmplitudes
 )/Gen 5d 7f SCF=(maxcycles=300) Integral(NoXCTest, DKHSO) MaxDisk=500G
 B Pop=Regular Guess=Read
 ----------------------------------------------------------------------

 ---
 MnH
 ---
 Symbolic Z-matrix:
 Charge =  0 Multiplicity = 7

                         Standard orientation:
 ---------------------------------------------------------------------
 Center     Atomic      Atomic             Coordinates (Angstroms)
 Number     Number       Type             X           Y           Z
 ---------------------------------------------------------------------
      1         25           0        0.000000    0.000000    0.042308
      2          1           0        0.000000    0.000000   -1.057692
 ---------------------------------------------------------------------

 SCF Done:  E(ROHF) =  -1157.75638323     A.U. after   20 cycles
 E2 =    -0.6199653507D+00 EUMP2 =    -0.11583763485835D+04
 CCSD(T)
 CCSD(T)= -0.11583861994D+04

 The electronic state is 7-SG.
 Alpha  occ. eigenvalues -- -242.49203 -29.59781 -24.95164 -24.95164 -24.94985
 Alpha  occ. eigenvalues --   -4.09098  -2.75451  -2.73693  -2.73693  -0.69746
 Alpha  occ. eigenvalues --   -0.63843  -0.63843  -0.63300  -0.63300  -0.40175
 Alpha  occ. eigenvalues --   -0.22684
 Alpha virt. eigenvalues --    0.01254   0.01254   0.01818   0.03267   0.05074
 Alpha virt. eigenvalues --    0.05074   0.05769   0.05821   0.05821   0.06113
 Alpha virt. eigenvalues --    0.06113   0.07990   0.14054   0.15937   0.17669

 Mulliken charges and spin densities:
               1          2
     1  Mn   0.550528   5.831084
     2  H   -0.550528   0.168916
 Sum of Mulliken charges =  -0.00000   6.00000

 Dipole moment (field-independent basis, Debye):
    X=             -0.0000    Y=             -0.0000    Z=             -0.7498  Tot=              0.7498
 Quadrupole moment (field-independent basis, Debye-Ang):
   XX=            -16.3156   YY=            -16.3156   ZZ=            -25.8305
   XY=              0.0000   XZ=             -0.0000   YZ=             -0.0000

 1\1\GINC-C504-081\SP\ROCCSD(T)-RW\Gen\H1Mn1(7)\AANNABE\25-Feb-2018\0\\
 #P ROCCSD(T)=(maxcyc=150, Window=(6,0), SaveAmplitudes, ReadAmplitudes
 )/Gen 5d 7f SCF=(maxcycles=300) Integral(NoXCTest, DKHSO) MaxDisk=500G
 B Pop=Regular Guess=Read\\MnH\\0,7\Mn,0,0.,0.,0.\H,0,0.,0.,1.1\\Versio
 n=ES64L-G16RevA.03\State=7-SG\HF=-1157.7563832\MP2=-1158.3763486\PUHF=
 -1157.7563832\PMP2-0=-1158.3763486\CCSD=-1158.3686437\CCSD(T)=-1158.38
 61994\RMSD=9.001e-09\PG=C*V [C*(H1Mn1)]\\@

 Normal termination of Gaussian 16 at Sun Feb 25 17:41:51 2018.
