 Gaussian 16, Revision A.03,
 Gaussian 16:  ES64L-G16RevA.03 25-Dec-2016

 ----------------------------------------------------------------------
 #P ROCCSD(T)=(maxcyc=150, Full, SaveAmplitudes, ReadAmplitudes)/Gen 5d
  7f SCF=(maxcycles=300, VShift=400) Integral(NoXCTest) MaxDisk=500GB P
 op=Full Pseudo=Read Guess=Read IOp(5/15=2)
 ----------------------------------------------------------------------

 ---
 MnO
 ---
 Symbolic Z-matrix:
 Charge =  0 Multiplicity = 6

                         Standard orientation:
 ---------------------------------------------------------------------
 Center     Atomic      Atomic             Coordinates (Angstroms)
 Number     Number       Type             X           Y           Z
 ---------------------------------------------------------------------
      1         25           0        0.000000    0.000000    0.436364
      2          8           0        0.000000    0.000000   -1.363636
 ---------------------------------------------------------------------

 SCF Done:  E(ROHF) =  -118.902137200     A.U. after   62 cycles
 E2 =    -0.8929995234D+00 EUMP2 =    -0.11979513672332D+03
 CCSD(T)
 CCSD(T)= -0.11982386237D+03

 The electronic state is 6-SG.
 Alpha  occ. eigenvalues --   -4.15113  -2.77347  -2.77347  -2.76813  -1.10684
 Alpha  occ. eigenvalues --   -0.65248  -0.65248  -0.64944  -0.64944  -0.61729
 Alpha  occ. eigenvalues --   -0.33839  -0.33839  -0.33232
 Alpha virt. eigenvalues --   -0.05156   0.01408   0.01408   0.01661   0.03826
 Alpha virt. eigenvalues --    0.06455   0.06455   0.08198   0.08359   0.08359
 Alpha virt. eigenvalues --    0.09463   0.09463   0.12866   0.14022   0.22716

 Mulliken charges and spin densities:
               1          2
     1  Mn   1.123699   4.927430
     2  O   -1.123699   0.072570
 Sum of Mulliken charges =  -0.00000   5.00000

 Dipole moment (field-independent basis, Debye):
    X=              0.0000    Y=              0.0000    Z=              9.4131  Tot=              9.4131
 Quadrupole moment (field-independent basis, Debye-Ang):
   XX=            -19.0551   YY=            -19.0551   ZZ=            -24.6153
   XY=              0.0000   XZ=              0.0000   YZ=              0.0000

 \\#P ROCCSD(T)=(maxcyc=150, Full, SaveAmplitudes, ReadAmplitudes)/Gen
 4SDQ=-119.7929872\CCSD=-119.7828645\CCSD(T)=-119.8238624\RMSD=8.855e-0
 Normal termination of Gaussian 16 at Sat May  5 07:13:25 2018.
