 Gaussian 16, Revision A.03,
 Gaussian 16:  ES64L-G16RevA.03 25-Dec-2016

 ----------------------------------------------------------------------
 #P ROCCSD(T)=(MaxCyc=150, Full)/Gen SCF=(maxcycle=400) Pseudo=Read Int
 egral(NoXCTest) Pop=Regular MaxDisk=500GB Guess=Read IOp(5/15=2)
 ----------------------------------------------------------------------

 ---
 ZnO
 ---
 Symbolic Z-matrix:
 Charge =  0 Multiplicity = 1

                         Standard orientation:
 ---------------------------------------------------------------------
 Center     Atomic      Atomic             Coordinates (Angstroms)
 Number     Number       Type             X           Y           Z
 ---------------------------------------------------------------------
      1         30           0        0.000000    0.000000    0.378947
      2          8           0        0.000000    0.000000   -1.421053
 ---------------------------------------------------------------------

 SCF Done:  E(ROHF) =  -241.248805141     A.U. after    1 cycles
 E2 =    -0.1312784199D+01 EUMP2 =    -0.24256158934043D+03
 CCSD(T)
 CCSD(T)= -0.24251282854D+03

 The electronic state is 1-SG.
 Alpha  occ. eigenvalues --   -5.90837  -4.02499  -4.02499  -4.02495  -1.16179
 Alpha  occ. eigenvalues --   -0.82514  -0.82514  -0.82219  -0.82219  -0.80856
 Alpha  occ. eigenvalues --   -0.41172  -0.41172  -0.36461
 Alpha virt. eigenvalues --   -0.04686   0.02513   0.02513   0.02647   0.04619
 Alpha virt. eigenvalues --    0.08554   0.08554   0.13219   0.17430   0.21833
 Alpha virt. eigenvalues --    0.23334   0.23334   0.24634   0.24634   0.29908

 Mulliken charges and spin densities:
               1          2
     1  Zn   0.913560   0.000000
     2  O   -0.913560   0.000000
 Sum of Mulliken charges =   0.00000   0.00000

 Dipole moment (field-independent basis, Debye):
    X=              0.0000    Y=              0.0000    Z=              6.7541  Tot=              6.7541
 Quadrupole moment (field-independent basis, Debye-Ang):
   XX=            -18.3396   YY=            -18.3396   ZZ=            -21.9482
   XY=              0.0000   XZ=              0.0000   YZ=              0.0000

 P ROCCSD(T)=(MaxCyc=150, Full)/Gen SCF=(maxcycle=400) Pseudo=Read Inte
 2-0=-242.5615893\MP4SDQ=-242.5018833\CCSD=-242.4651929\CCSD(T)=-242.51
 Normal termination of Gaussian 16 at Tue Mar 27 11:53:41 2018.
