 Gaussian 16, Revision A.03,
 Gaussian 16:  ES64L-G16RevA.03 25-Dec-2016

 ----------------------------------------------------------------------
 #P ROCCSD(T)=(MaxCyc=150, Full)/Gen SCF=(maxcycle=400) Pseudo=Read Int
 egral(NoXCTest) Pop=Regular MaxDisk=500GB Guess=Read IOp(5/15=2)
 ----------------------------------------------------------------------

 ---
 ZnO
 ---
 Symbolic Z-matrix:
 Charge =  0 Multiplicity = 1

                         Standard orientation:
 ---------------------------------------------------------------------
 Center     Atomic      Atomic             Coordinates (Angstroms)
 Number     Number       Type             X           Y           Z
 ---------------------------------------------------------------------
      1         30           0        0.000000    0.000000    0.378947
      2          8           0        0.000000    0.000000   -1.421053
 ---------------------------------------------------------------------

 SCF Done:  E(ROHF) =  -241.251531526     A.U. after   11 cycles
 E2 =    -0.1380535415D+01 EUMP2 =    -0.24263206694164D+03
 CCSD(T)
 CCSD(T)= -0.24258086430D+03

 The electronic state is 1-SG.
 Alpha  occ. eigenvalues --   -5.90819  -4.02478  -4.02478  -4.02469  -1.16141
 Alpha  occ. eigenvalues --   -0.82499  -0.82499  -0.82208  -0.82208  -0.80836
 Alpha  occ. eigenvalues --   -0.41188  -0.41188  -0.36441
 Alpha virt. eigenvalues --   -0.04671   0.02297   0.02297   0.02419   0.04148
 Alpha virt. eigenvalues --    0.07471   0.07471   0.11799   0.16506   0.17252
 Alpha virt. eigenvalues --    0.17756   0.17756   0.20220   0.20220   0.23197

 Mulliken charges and spin densities:
               1          2
     1  Zn   0.858781   0.000000
     2  O   -0.858781   0.000000
 Sum of Mulliken charges =  -0.00000   0.00000

 Dipole moment (field-independent basis, Debye):
    X=              0.0000    Y=              0.0000    Z=              6.7401  Tot=              6.7401
 Quadrupole moment (field-independent basis, Debye-Ang):
   XX=            -18.3265   YY=            -18.3265   ZZ=            -21.9491
   XY=              0.0000   XZ=              0.0000   YZ=              0.0000

 P ROCCSD(T)=(MaxCyc=150, Full)/Gen SCF=(maxcycle=400) Pseudo=Read Inte
 2-0=-242.6320669\MP4SDQ=-242.5666354\CCSD=-242.5306532\CCSD(T)=-242.58
 Normal termination of Gaussian 16 at Tue Mar 27 14:07:21 2018.
