 Gaussian 16, Revision A.03,
 Gaussian 16:  ES64L-G16RevA.03 25-Dec-2016

 ----------------------------------------------------------------------
 #P ROCCSD(T)=(maxcyc=150, Full)/Gen 5d 7f SCF=(maxcycles=300) Integral
 (NoXCTest, DKHSO) MaxDisk=500GB Pop=Regular IOp(5/15=2) Guess=Read
 ----------------------------------------------------------------------

 ---
 ScH
 ---
 Symbolic Z-matrix:
 Charge =  0 Multiplicity = 1

                         Standard orientation:
 ---------------------------------------------------------------------
 Center     Atomic      Atomic             Coordinates (Angstroms)
 Number     Number       Type             X           Y           Z
 ---------------------------------------------------------------------
      1         21           0        0.000000    0.000000    0.090909
      2          1           0        0.000000    0.000000   -1.909091
 ---------------------------------------------------------------------

 SCF Done:  E(ROHF) =  -763.826110507     A.U. after   13 cycles
 E2 =    -0.7883546549D+00 EUMP2 =    -0.76461446516151D+03
 CCSD(T)
 CCSD(T)= -0.76465307300D+03

 The electronic state is 1-SG.
 Alpha  occ. eigenvalues -- -166.94348 -19.40002 -15.82334 -15.82334 -15.81534
 Alpha  occ. eigenvalues --   -2.70622  -1.68045  -1.68045  -1.67832  -0.38142
 Alpha  occ. eigenvalues --   -0.23969
 Alpha virt. eigenvalues --    0.00962   0.00962   0.01296   0.01782   0.02571
 Alpha virt. eigenvalues --    0.02571   0.02675   0.02675   0.02730   0.03719
 Alpha virt. eigenvalues --    0.03837   0.03837   0.06396   0.06396   0.07035

 Mulliken charges and spin densities:
               1          2
     1  Sc   0.373084   0.000000
     2  H   -0.373084   0.000000
 Sum of Mulliken charges =  -0.00000   0.00000

 Dipole moment (field-independent basis, Debye):
    X=              0.0000    Y=             -0.0000    Z=              2.0991  Tot=              2.0991
 Quadrupole moment (field-independent basis, Debye-Ang):
   XX=            -23.3566   YY=            -23.3566   ZZ=            -29.0280
   XY=              0.0000   XZ=              0.0000   YZ=              0.0000

 P ROCCSD(T)=(maxcyc=150, Full)/Gen 5d 7f SCF=(maxcycles=300) Integral(
 P2-0=-764.6144652\MP4SDQ=-764.6311293\CCSD=-764.6321845\CCSD(T)=-764.6
 Normal termination of Gaussian 16 at Wed Feb 14 16:37:16 2018.
