 Gaussian 16, Revision A.03,
 Gaussian 16:  ES64L-G16RevA.03 25-Dec-2016

 ----------------------------------------------------------------------
 #P ROCCSD(T)=(MaxCyc=150, Window=(7,0))/Gen SCF=(maxcycle=400) Integra
 l(DKHSO, NoXCTest) Pop=Regular MaxDisk=500GB Guess=Read IOp(5/15=2)
 ----------------------------------------------------------------------

 ---
 ZnO
 ---
 Symbolic Z-matrix:
 Charge =  0 Multiplicity = 1

                         Standard orientation:
 ---------------------------------------------------------------------
 Center     Atomic      Atomic             Coordinates (Angstroms)
 Number     Number       Type             X           Y           Z
 ---------------------------------------------------------------------
      1         30           0        0.000000    0.000000    0.421053
      2          8           0        0.000000    0.000000   -1.578947
 ---------------------------------------------------------------------

 SCF Done:  E(ROHF) =  -1869.06576038     A.U. after   11 cycles
 E2 =    -0.1363023743D+01 EUMP2 =    -0.18704287841237D+04
 CCSD(T)
 CCSD(T)= -0.18703748754D+04

 The electronic state is 1-SG.
 Alpha  occ. eigenvalues -- -357.61627 -45.38143 -39.18474 -39.18474 -39.18312
 Alpha  occ. eigenvalues --  -20.56763  -5.85000  -3.92912  -3.92912  -3.92859
 Alpha  occ. eigenvalues --   -1.15880  -0.81660  -0.81660  -0.81568  -0.81568
 Alpha  occ. eigenvalues --   -0.80854  -0.44505  -0.44505  -0.34806
 Alpha virt. eigenvalues --   -0.03893   0.02272   0.02272   0.02599   0.04017
 Alpha virt. eigenvalues --    0.07365   0.07365   0.11634   0.16504   0.16794
 Alpha virt. eigenvalues --    0.17897   0.17897   0.19381   0.19381   0.23249

 Mulliken charges and spin densities:
               1          2
     1  Zn   0.652503   0.000000
     2  O   -0.652503   0.000000
 Sum of Mulliken charges =  -0.00000   0.00000

 Dipole moment (field-independent basis, Debye):
    X=              0.0000    Y=             -0.0000    Z=              5.5796  Tot=              5.5796
 Quadrupole moment (field-independent basis, Debye-Ang):
   XX=            -19.0184   YY=            -19.0184   ZZ=            -22.2513
   XY=              0.0000   XZ=              0.0000   YZ=             -0.0000

 ROCCSD(T)=(MaxCyc=150, Window=(7,0))/Gen SCF=(maxcycle=400) Integral(D
 \PMP2-0=-1870.4287841\MP4SDQ=-1870.3633542\CCSD=-1870.3247024\CCSD(T)=
 Normal termination of Gaussian 16 at Fri May  4 20:04:46 2018.
