 Gaussian 16, Revision A.03,
 Gaussian 16:  ES64L-G16RevA.03 25-Dec-2016

 ----------------------------------------------------------------------
 #P ROCCSD(T)=(MaxCyc=150, Full)/Gen SCF=(maxcycle=400, vshift=200) Pse
 udo=Read Integral(NoXCTest) Pop=Regular MaxDisk=500GB
 ----------------------------------------------------------------------

 ---
 ZnO
 ---
 Symbolic Z-matrix:
 Charge =  0 Multiplicity = 1

                         Standard orientation:
 ---------------------------------------------------------------------
 Center     Atomic      Atomic             Coordinates (Angstroms)
 Number     Number       Type             X           Y           Z
 ---------------------------------------------------------------------
      1         30           0        0.000000    0.000000    0.378947
      2          8           0        0.000000    0.000000   -1.421053
 ---------------------------------------------------------------------

 SCF Done:  E(ROHF) =  -240.901724138     A.U. after   19 cycles
 E2 =    -0.1384806034D+01 EUMP2 =    -0.24228653017185D+03
 CCSD(T)
 CCSD(T)= -0.24223392772D+03

 The electronic state is 1-SG.
 Alpha  occ. eigenvalues --   -5.90171  -3.98093  -3.98093  -3.98084  -1.16176
 Alpha  occ. eigenvalues --   -0.82575  -0.82575  -0.82282  -0.82282  -0.80907
 Alpha  occ. eigenvalues --   -0.41243  -0.41243  -0.36418
 Alpha virt. eigenvalues --   -0.04612   0.02304   0.02304   0.02432   0.04146
 Alpha virt. eigenvalues --    0.07498   0.07498   0.11801   0.16527   0.17245
 Alpha virt. eigenvalues --    0.17759   0.17759   0.20210   0.20210   0.23201

 Mulliken charges and spin densities:
               1          2
     1  Zn   0.857268   0.000000
     2  O   -0.857268   0.000000
 Sum of Mulliken charges =  -0.00000   0.00000

 Dipole moment (field-independent basis, Debye):
    X=              0.0000    Y=              0.0000    Z=              6.7152  Tot=              6.7152
 Quadrupole moment (field-independent basis, Debye-Ang):
   XX=            -18.3354   YY=            -18.3354   ZZ=            -21.9576
   XY=              0.0000   XZ=              0.0000   YZ=              0.0000

 P ROCCSD(T)=(MaxCyc=150, Full)/Gen SCF=(maxcycle=400, vshift=200) Pseu
 5302\MP4SDQ=-242.2204802\CCSD=-242.1836935\CCSD(T)=-242.2339277\RMSD=6
 Normal termination of Gaussian 16 at Fri Apr 13 21:38:46 2018.
