 Gaussian 16, Revision A.03,
 Gaussian 16:  ES64L-G16RevA.03 25-Dec-2016

 ----------------------------------------------------------------------
 #P ROCCSD(T)=(MaxCyc=150, Full)/Gen SCF=(maxcycle=400, vshift=200) Pse
 udo=Read Integral(NoXCTest) Pop=Regular MaxDisk=500GB
 ----------------------------------------------------------------------

 ---
 ZnO
 ---
 Symbolic Z-matrix:
 Charge =  0 Multiplicity = 1

                         Standard orientation:
 ---------------------------------------------------------------------
 Center     Atomic      Atomic             Coordinates (Angstroms)
 Number     Number       Type             X           Y           Z
 ---------------------------------------------------------------------
      1         30           0        0.000000    0.000000    0.378947
      2          8           0        0.000000    0.000000   -1.421053
 ---------------------------------------------------------------------

 SCF Done:  E(ROHF) =  -240.899005149     A.U. after   19 cycles
 E2 =    -0.1317095682D+01 EUMP2 =    -0.24221610083009D+03
 CCSD(T)
 CCSD(T)= -0.24216595879D+03

 The electronic state is 1-SG.
 Alpha  occ. eigenvalues --   -5.90190  -3.98114  -3.98114  -3.98111  -1.16214
 Alpha  occ. eigenvalues --   -0.82591  -0.82591  -0.82294  -0.82294  -0.80926
 Alpha  occ. eigenvalues --   -0.41228  -0.41228  -0.36438
 Alpha virt. eigenvalues --   -0.04626   0.02521   0.02521   0.02662   0.04616
 Alpha virt. eigenvalues --    0.08586   0.08586   0.13218   0.17450   0.21825
 Alpha virt. eigenvalues --    0.23319   0.23319   0.24637   0.24637   0.29995

 Mulliken charges and spin densities:
               1          2
     1  Zn   0.911925   0.000000
     2  O   -0.911925   0.000000
 Sum of Mulliken charges =  -0.00000   0.00000

 Dipole moment (field-independent basis, Debye):
    X=              0.0000    Y=              0.0000    Z=              6.7292  Tot=              6.7292
 Quadrupole moment (field-independent basis, Debye-Ang):
   XX=            -18.3485   YY=            -18.3485   ZZ=            -21.9568
   XY=              0.0000   XZ=              0.0000   YZ=              0.0000

 P ROCCSD(T)=(MaxCyc=150, Full)/Gen SCF=(maxcycle=400, vshift=200) Pseu
 61008\MP4SDQ=-242.1557949\CCSD=-242.1183047\CCSD(T)=-242.1659588\RMSD=
 Normal termination of Gaussian 16 at Fri Apr 13 19:22:51 2018.
