 Gaussian 16, Revision A.03,
 Gaussian 16:  ES64L-G16RevA.03 25-Dec-2016

 ----------------------------------------------------------------------
 #P ROCCSD(T)=(maxcyc=150, Full, SaveAmplitudes, ReadAmplitudes)/Gen 5d
  7f SCF=(maxcycles=300, VShift=200) Integral(NoXCTest) MaxDisk=500GB P
 op=Regular Pseudo=Read Guess=Read
 ----------------------------------------------------------------------

 ---
 MnO
 ---
 Symbolic Z-matrix:
 Charge =  0 Multiplicity = 6

                         Standard orientation:
 ---------------------------------------------------------------------
 Center     Atomic      Atomic             Coordinates (Angstroms)
 Number     Number       Type             X           Y           Z
 ---------------------------------------------------------------------
      1         25           0        0.000000    0.000000    0.412121
      2          8           0        0.000000    0.000000   -1.287879
 ---------------------------------------------------------------------

 SCF Done:  E(ROHF) =  -119.115682793     A.U. after   24 cycles
 E2 =    -0.9341879317D+00 EUMP2 =    -0.12004987072453D+03
 CCSD(T)
 CCSD(T)= -0.12007840761D+03

 The electronic state is 6-SG.
 Alpha  occ. eigenvalues --   -4.15108  -2.79572  -2.79572  -2.78941  -1.12014
 Alpha  occ. eigenvalues --   -0.64435  -0.64435  -0.63664  -0.63664  -0.59553
 Alpha  occ. eigenvalues --   -0.33894  -0.33894  -0.33886
 Alpha virt. eigenvalues --   -0.04601   0.01337   0.01337   0.01598   0.03379
 Alpha virt. eigenvalues --    0.05760   0.05760   0.05865   0.05865   0.06359
 Alpha virt. eigenvalues --    0.07069   0.07069   0.11369   0.12678   0.17845

 Mulliken charges and spin densities:
               1          2
     1  Mn   1.166312   4.903058
     2  O   -1.166312   0.096942
 Sum of Mulliken charges =  -0.00000   5.00000

 Dipole moment (field-independent basis, Debye):
    X=              0.0000    Y=              0.0000    Z=              9.1055  Tot=              9.1055
 Quadrupole moment (field-independent basis, Debye-Ang):
   XX=            -18.8630   YY=            -18.8630   ZZ=            -23.8176
   XY=              0.0000   XZ=              0.0000   YZ=              0.0000

 \\#P ROCCSD(T)=(maxcyc=150, Full, SaveAmplitudes, ReadAmplitudes)/Gen
 707\PUHF=-119.1156828\PMP2-0=-120.0498707\CCSD=-120.0351355\CCSD(T)=-1
 Normal termination of Gaussian 16 at Fri Mar 16 04:34:36 2018.
