 Gaussian 16, Revision A.03,
 Gaussian 16:  ES64L-G16RevA.03 25-Dec-2016

 ----------------------------------------------------------------------
 #P ROCCSD(T)=(maxcyc=150, Full, ReadAmplitudes)/Gen 5d 7f SCF=(maxcycl
 es=300) Integral(NoXCTest) MaxDisk=500GB Pop=Regular Pseudo=Read Guess
 =Read
 ----------------------------------------------------------------------

 ---
 CrH
 ---
 Symbolic Z-matrix:
 Charge =  0 Multiplicity = 6

                         Standard orientation:
 ---------------------------------------------------------------------
 Center     Atomic      Atomic             Coordinates (Angstroms)
 Number     Number       Type             X           Y           Z
 ---------------------------------------------------------------------
      1         24           0        0.000000    0.000000    0.076000
      2          1           0        0.000000    0.000000   -1.824000
 ---------------------------------------------------------------------

 SCF Done:  E(ROHF) =  -86.8782346172     A.U. after   22 cycles
 E2 =    -0.5635894871D+00 EUMP2 =    -0.87441824104239D+02
 CCSD(T)
 CCSD(T)= -0.87490836066D+02

 The electronic state is 6-SG.
 Alpha  occ. eigenvalues --   -3.76946  -2.46866  -2.46866  -2.41910  -0.57202
 Alpha  occ. eigenvalues --   -0.57202  -0.53732  -0.53732  -0.38767  -0.26602
 Alpha virt. eigenvalues --    0.01081   0.01081   0.01786   0.02332   0.04335
 Alpha virt. eigenvalues --    0.04675   0.04675   0.04902   0.04902   0.05228
 Alpha virt. eigenvalues --    0.05228   0.06405   0.08555   0.11159   0.15196

 Mulliken charges and spin densities:
               1          2
     1  Cr   0.344298   4.968816
     2  H   -0.344298   0.031184
 Sum of Mulliken charges =  -0.00000   5.00000

 Dipole moment (field-independent basis, Debye):
    X=              0.0000    Y=              0.0000    Z=              2.6932  Tot=              2.6932
 Quadrupole moment (field-independent basis, Debye-Ang):
   XX=            -17.0641   YY=            -17.0641   ZZ=            -25.9211
   XY=              0.0000   XZ=              0.0000   YZ=              0.0000

 \\#P ROCCSD(T)=(maxcyc=150, Full, ReadAmplitudes)/Gen 5d 7f SCF=(maxcy
 7.4418241\CCSD=-87.4739773\CCSD(T)=-87.4908361\RMSD=6.356e-09\PG=C*V [
 Normal termination of Gaussian 16 at Mon Feb 26 17:57:42 2018.
