 Gaussian 16, Revision A.03,
 Gaussian 16:  ES64L-G16RevA.03 25-Dec-2016

 ----------------------------------------------------------------------
 #P ROCCSD(T)=(MaxCyc=150, Full)/Gen SCF=(maxcycle=400, vshift=200) Pse
 udo=Read Integral(NoXCTest) Pop=Regular MaxDisk=500GB Guess=Read IOp(5
 /15=2)
 ----------------------------------------------------------------------

 ---
 CoO
 ---
 Symbolic Z-matrix:
 Charge =  0 Multiplicity = 4

                         Standard orientation:
 ---------------------------------------------------------------------
 Center     Atomic      Atomic             Coordinates (Angstroms)
 Number     Number       Type             X           Y           Z
 ---------------------------------------------------------------------
      1         27           0        0.000000    0.000000    0.274286
      2          8           0        0.000000    0.000000   -0.925714
 ---------------------------------------------------------------------

 SCF Done:  E(ROHF) =  -159.675472308     A.U. after   20 cycles
 E2 =    -0.1195902310D+01 EUMP2 =    -0.16087137461765D+03
 CCSD(T)
 CCSD(T)= -0.16084527912D+03

 Unable to determine electronic state:  partially filled degenerate orbitals.
 Alpha  occ. eigenvalues --   -4.90899  -3.36632  -3.29707  -3.29707  -1.38698
 Alpha  occ. eigenvalues --   -0.91931  -0.91931  -0.78431  -0.76651  -0.73487
 Alpha  occ. eigenvalues --   -0.50592  -0.50592  -0.32401
 Alpha virt. eigenvalues --    0.01494   0.02715   0.02715   0.03043   0.05601
 Alpha virt. eigenvalues --    0.07157   0.07157   0.07403   0.07410   0.07641
 Alpha virt. eigenvalues --    0.09181   0.09181   0.11183   0.17337   0.21435

 Mulliken charges and spin densities:
               1          2
     1  Co   0.588069   2.603766
     2  O   -0.588069   0.396234
 Sum of Mulliken charges =  -0.00000   3.00000

 Dipole moment (field-independent basis, Debye):
    X=              0.0000    Y=              0.0000    Z=              1.7833  Tot=              1.7833
 Quadrupole moment (field-independent basis, Debye-Ang):
   XX=            -20.3388   YY=            -20.3388   ZZ=            -20.4047
   XY=              0.0000   XZ=              0.0000   YZ=              0.0000

 \\#P ROCCSD(T)=(MaxCyc=150, Full)/Gen SCF=(maxcycle=400, vshift=200) P
 \PMP2-0=-160.8713746\MP4SDQ=-160.8235763\CCSD=-160.7948793\CCSD(T)=-16
 Normal termination of Gaussian 16 at Thu May  3 17:17:12 2018.
