 Gaussian 16, Revision A.03,
 Gaussian 16:  ES64L-G16RevA.03 25-Dec-2016

 ----------------------------------------------------------------------
 #P ROCCSD(T)=(MaxCyc=150, Full)/Gen SCF=(maxcycle=400, vshift=200) Pse
 udo=Read Integral(NoXCTest) Pop=Regular MaxDisk=500GB Guess=Read IOp(5
 /15=2)
 ----------------------------------------------------------------------

 ---
 CoO
 ---
 Symbolic Z-matrix:
 Charge =  0 Multiplicity = 4

                         Standard orientation:
 ---------------------------------------------------------------------
 Center     Atomic      Atomic             Coordinates (Angstroms)
 Number     Number       Type             X           Y           Z
 ---------------------------------------------------------------------
      1         27           0        0.000000    0.000000    0.274286
      2          8           0        0.000000    0.000000   -0.925714
 ---------------------------------------------------------------------

 SCF Done:  E(ROHF) =  -159.670975474     A.U. after   26 cycles
 E2 =    -0.1143256357D+01 EUMP2 =    -0.16081423183050D+03
 CCSD(T)
 CCSD(T)= -0.16079028192D+03

 Unable to determine electronic state:  partially filled degenerate orbitals.
 Alpha  occ. eigenvalues --   -4.90924  -3.36676  -3.29725  -3.29725  -1.38750
 Alpha  occ. eigenvalues --   -0.91918  -0.91918  -0.78427  -0.76656  -0.73478
 Alpha  occ. eigenvalues --   -0.50578  -0.50578  -0.32420
 Alpha virt. eigenvalues --    0.01563   0.02982   0.02982   0.03320   0.06041
 Alpha virt. eigenvalues --    0.09581   0.09581   0.11222   0.11281   0.11281
 Alpha virt. eigenvalues --    0.11319   0.11343   0.12625   0.18508   0.26001

 Mulliken charges and spin densities:
               1          2
     1  Co   0.587045   2.596173
     2  O   -0.587045   0.403827
 Sum of Mulliken charges =  -0.00000   3.00000

 Dipole moment (field-independent basis, Debye):
    X=              0.0000    Y=              0.0000    Z=              1.7948  Tot=              1.7948
 Quadrupole moment (field-independent basis, Debye-Ang):
   XX=            -20.3365   YY=            -20.3365   ZZ=            -20.4177
   XY=              0.0000   XZ=              0.0000   YZ=              0.0000

 \\#P ROCCSD(T)=(MaxCyc=150, Full)/Gen SCF=(maxcycle=400, vshift=200) P
 \PMP2-0=-160.8142318\MP4SDQ=-160.7714872\CCSD=-160.7421294\CCSD(T)=-16
 Normal termination of Gaussian 16 at Thu May  3 15:10:35 2018.
