 Gaussian 16, Revision A.03,
 Gaussian 16:  ES64L-G16RevA.03 25-Dec-2016

 ----------------------------------------------------------------------
 #P ROCCSD(T)=(maxcyc=150, Full, SaveAmplitudes, ReadAmplitudes)/Gen 5d
  7f SCF=(maxcycles=300) Integral(NoXCTest) MaxDisk=500GB Pop=Regular P
 seudo=Read Guess=Read
 ----------------------------------------------------------------------

 ---
 MnO
 ---
 Symbolic Z-matrix:
 Charge =  0 Multiplicity = 6

                         Standard orientation:
 ---------------------------------------------------------------------
 Center     Atomic      Atomic             Coordinates (Angstroms)
 Number     Number       Type             X           Y           Z
 ---------------------------------------------------------------------
      1         25           0        0.000000    0.000000    0.290909
      2          8           0        0.000000    0.000000   -0.909091
 ---------------------------------------------------------------------

 SCF Done:  E(ROHF) =  -119.048055777     A.U. after   23 cycles
 E2 =    -0.9945865580D+00 EUMP2 =    -0.12004264233472D+03
 CCSD(T)
 CCSD(T)= -0.12004339006D+03

 The electronic state is 6-SG.
 Alpha  occ. eigenvalues --   -4.07272  -2.75485  -2.71966  -2.71966  -1.29961
 Alpha  occ. eigenvalues --   -0.78312  -0.78312  -0.65928  -0.59671  -0.59671
 Alpha  occ. eigenvalues --   -0.38501  -0.38501  -0.29008
 Alpha virt. eigenvalues --    0.02206   0.02430   0.02430   0.02742   0.05502
 Alpha virt. eigenvalues --    0.06004   0.06004   0.06019   0.06019   0.08111
 Alpha virt. eigenvalues --    0.08111   0.08897   0.10938   0.15065   0.18327

 Mulliken charges and spin densities:
               1          2
     1  Mn   1.015827   4.692271
     2  O   -1.015827   0.307729
 Sum of Mulliken charges =  -0.00000   5.00000

 Dipole moment (field-independent basis, Debye):
    X=              0.0000    Y=              0.0000    Z=              1.2887  Tot=              1.2887
 Quadrupole moment (field-independent basis, Debye-Ang):
   XX=            -20.1155   YY=            -20.1155   ZZ=            -22.2701
   XY=              0.0000   XZ=              0.0000   YZ=              0.0000

 \\#P ROCCSD(T)=(maxcyc=150, Full, SaveAmplitudes, ReadAmplitudes)/Gen
 9.0480558\PMP2-0=-120.0426423\CCSD=-120.0032308\CCSD(T)=-120.0433901\R
 Normal termination of Gaussian 16 at Tue Mar 13 14:05:35 2018.
