 Gaussian 16, Revision A.03,
 Gaussian 16:  ES64L-G16RevA.03 25-Dec-2016

 ----------------------------------------------------------------------
 #P ROCCSD(T)=(maxcyc=150, Window=(6,0), SaveAmplitudes, ReadAmplitudes
 )/Gen 5d 7f SCF=(maxcycles=300) Integral(NoXCTest, DKHSO) MaxDisk=500G
 B Pop=Regular Guess=Read IOp(5/15=2)
 ----------------------------------------------------------------------

 ---
 CrH
 ---
 Symbolic Z-matrix:
 Charge =  0 Multiplicity = 6

                         Standard orientation:
 ---------------------------------------------------------------------
 Center     Atomic      Atomic             Coordinates (Angstroms)
 Number     Number       Type             X           Y           Z
 ---------------------------------------------------------------------
      1         24           0        0.000000    0.000000    0.048000
      2          1           0        0.000000    0.000000   -1.152000
 ---------------------------------------------------------------------

 SCF Done:  E(ROHF) =  -1050.10530544     A.U. after   38 cycles
 E2 =    -0.5708086556D+00 EUMP2 =    -0.10506761140976D+04
 CCSD(T)
 CCSD(T)= -0.10506920546D+04

 The electronic state is 6-SG.
 Alpha  occ. eigenvalues -- -222.10830 -26.69471 -22.32928 -22.32928 -22.32829
 Alpha  occ. eigenvalues --   -3.58222  -2.33390  -2.33390  -2.32628  -0.46319
 Alpha  occ. eigenvalues --   -0.45282  -0.45282  -0.42567  -0.42567  -0.25128
 Alpha virt. eigenvalues --    0.01780   0.01780   0.01847   0.02410   0.06216
 Alpha virt. eigenvalues --    0.06293   0.06293   0.07881   0.07881   0.08090
 Alpha virt. eigenvalues --    0.08119   0.08119   0.09938   0.19873   0.22323

 Mulliken charges and spin densities:
               1          2
     1  Cr   0.647187   5.019857
     2  H   -0.647187  -0.019857
 Sum of Mulliken charges =  -0.00000   5.00000

 Dipole moment (field-independent basis, Debye):
    X=              0.0000    Y=              0.0000    Z=              2.0227  Tot=              2.0227
 Quadrupole moment (field-independent basis, Debye-Ang):
   XX=            -16.9597   YY=            -16.9597   ZZ=            -19.0572
   XY=              0.0000   XZ=              0.0000   YZ=              0.0000

 1\1\GINC-C505-052\SP\ROCCSD(T)-RW\Gen\Cr1H1(6)\AANNABE\25-Feb-2018\0\\
 #P ROCCSD(T)=(maxcyc=150, Window=(6,0), SaveAmplitudes, ReadAmplitudes
 )/Gen 5d 7f SCF=(maxcycles=300) Integral(NoXCTest, DKHSO) MaxDisk=500G
 B Pop=Regular Guess=Read IOp(5/15=2)\\CrH\\0,6\Cr,0,0.,0.,0.\H,0,0.,0.
 ,1.2\\Version=ES64L-G16RevA.03\State=6-SG\HF=-1050.1053054\MP2=-1050.6
 761141\MP3=-1050.6585385\PUHF=-1050.1053054\PMP2-0=-1050.6761141\MP4SD
 Q=-1050.6724654\CCSD=-1050.6726938\CCSD(T)=-1050.6920546\RMSD=7.320e-0
 9\PG=C*V [C*(H1Cr1)]\\@

 Normal termination of Gaussian 16 at Sun Feb 25 18:57:23 2018.
