 Gaussian 16, Revision A.03,
 Gaussian 16:  ES64L-G16RevA.03 25-Dec-2016

 ----------------------------------------------------------------------
 #P ROCCSD(T)=(maxcyc=150, Full, SaveAmplitudes, ReadAmplitudes)/Gen 5d
  7f SCF=(maxcycles=300) Integral(NoXCTest) MaxDisk=500GB Pop=Regular P
 seudo=Read Guess=Read
 ----------------------------------------------------------------------

 ---
 ScO
 ---
 Symbolic Z-matrix:
 Charge =  0 Multiplicity = 2

                         Standard orientation:
 ---------------------------------------------------------------------
 Center     Atomic      Atomic             Coordinates (Angstroms)
 Number     Number       Type             X           Y           Z
 ---------------------------------------------------------------------
      1         21           0        0.000000    0.000000    0.358621
      2          8           0        0.000000    0.000000   -0.941379
 ---------------------------------------------------------------------

 SCF Done:  E(ROHF) =  -61.6688485353     A.U. after   16 cycles
 E2 =    -0.6938851197D+00 EUMP2 =    -0.62362733655000D+02
 CCSD(T)
 CCSD(T)= -0.62388784745D+02

 The electronic state is 2-SG.
 Alpha  occ. eigenvalues --   -2.58674  -1.76793  -1.53206  -1.53206  -1.06034
 Alpha  occ. eigenvalues --   -0.58053  -0.58053  -0.47260  -0.19347
 Alpha virt. eigenvalues --    0.00952   0.00952   0.01878   0.02302   0.02810
 Alpha virt. eigenvalues --    0.02810   0.02892   0.02893   0.02893   0.04183
 Alpha virt. eigenvalues --    0.04183   0.06557   0.08064   0.08064   0.08542

 Mulliken charges and spin densities:
               1          2
     1  Sc   0.972648   1.024225
     2  O   -0.972648  -0.024225
 Sum of Mulliken charges =  -0.00000   1.00000

 Dipole moment (field-independent basis, Debye):
    X=              0.0000    Y=              0.0000    Z=              0.1265  Tot=              0.1265
 Quadrupole moment (field-independent basis, Debye-Ang):
   XX=            -22.8781   YY=            -22.8781   ZZ=            -29.6418
   XY=              0.0000   XZ=              0.0000   YZ=              0.0000

 \\#P ROCCSD(T)=(maxcyc=150, Full, SaveAmplitudes, ReadAmplitudes)/Gen
 688485\PMP2-0=-62.3627337\CCSD=-62.3573744\CCSD(T)=-62.3887847\RMSD=1.
 Normal termination of Gaussian 16 at Tue Feb 20 23:34:30 2018.
