 Gaussian 16, Revision A.03,
 Gaussian 16:  ES64L-G16RevA.03 25-Dec-2016

 ----------------------------------------------------------------------
 #P ROCCSD(T)=(maxcyc=150, Full, SaveAmplitudes, ReadAmplitudes)/Gen 5d
  7f SCF=(maxcycles=300) Integral(NoXCTest) MaxDisk=500GB Pop=Regular P
 seudo=Read Guess=Read IOp(5/15=2)
 ----------------------------------------------------------------------

 ---
 MnO
 ---
 Symbolic Z-matrix:
 Charge =  0 Multiplicity = 6

                         Standard orientation:
 ---------------------------------------------------------------------
 Center     Atomic      Atomic             Coordinates (Angstroms)
 Number     Number       Type             X           Y           Z
 ---------------------------------------------------------------------
      1         25           0        0.000000    0.000000    0.460606
      2          8           0        0.000000    0.000000   -1.439394
 ---------------------------------------------------------------------

 SCF Done:  E(ROHF) =  -119.362359606     A.U. after   32 cycles
 E2 =    -0.9066637064D+00 EUMP2 =    -0.12026902331262D+03
 CCSD(T)
 CCSD(T)= -0.12029646732D+03

 The electronic state is 6-SG.
 Alpha  occ. eigenvalues --   -4.11324  -2.77677  -2.77677  -2.77324  -1.08470
 Alpha  occ. eigenvalues --   -0.65778  -0.65778  -0.65707  -0.65707  -0.63278
 Alpha  occ. eigenvalues --   -0.34556  -0.34556  -0.32349
 Alpha virt. eigenvalues --   -0.05490   0.01270   0.01270   0.01577   0.03801
 Alpha virt. eigenvalues --    0.06195   0.06195   0.08223   0.08308   0.08308
 Alpha virt. eigenvalues --    0.09294   0.09294   0.12628   0.13898   0.22279

 Mulliken charges and spin densities:
               1          2
     1  Mn   1.068876   4.957128
     2  O   -1.068876   0.042872
 Sum of Mulliken charges =  -0.00000   5.00000

 Dipole moment (field-independent basis, Debye):
    X=              0.0000    Y=              0.0000    Z=              9.3507  Tot=              9.3507
 Quadrupole moment (field-independent basis, Debye-Ang):
   XX=            -19.2333   YY=            -19.2333   ZZ=            -25.0802
   XY=              0.0000   XZ=              0.0000   YZ=              0.0000

 \\#P ROCCSD(T)=(maxcyc=150, Full, SaveAmplitudes, ReadAmplitudes)/Gen
 .2654325\CCSD=-120.2563578\CCSD(T)=-120.2964673\RMSD=8.804e-09\PG=C*V
 Normal termination of Gaussian 16 at Wed Mar 14 05:40:44 2018.
