 Gaussian 16, Revision A.03,
 Gaussian 16:  ES64L-G16RevA.03 25-Dec-2016

 ----------------------------------------------------------------------
 #P ROCCSD(T)=(MaxCyc=150, Full)/Gen SCF=(maxcycle=400, vshift=200) Pse
 udo=Read Integral(NoXCTest) Pop=Regular MaxDisk=500GB Guess=Read IOp(5
 /15=2)
 ----------------------------------------------------------------------

 ---
 CoH
 ---
 Symbolic Z-matrix:
 Charge =  0 Multiplicity = 3

                         Standard orientation:
 ---------------------------------------------------------------------
 Center     Atomic      Atomic             Coordinates (Angstroms)
 Number     Number       Type             X           Y           Z
 ---------------------------------------------------------------------
      1         27           0        0.000000    0.000000    0.046429
      2          1           0        0.000000    0.000000   -1.253571
 ---------------------------------------------------------------------

 SCF Done:  E(ROHF) =  -145.387767550     A.U. after   52 cycles
 E2 =    -0.8916774932D+00 EUMP2 =    -0.14627944504277D+03
 CCSD(T)
 CCSD(T)= -0.14626057848D+03

 Unable to determine electronic state:  partially filled degenerate orbitals.
 Alpha  occ. eigenvalues --   -4.40321  -2.92402  -2.92082  -2.92082  -0.50491
 Alpha  occ. eigenvalues --   -0.48620  -0.44276  -0.44276  -0.43918  -0.31847
 Alpha virt. eigenvalues --    0.00489   0.02702   0.02702   0.03180   0.05473
 Alpha virt. eigenvalues --    0.09342   0.09342   0.10269   0.11403   0.11445
 Alpha virt. eigenvalues --    0.11448   0.11553   0.11553   0.18834   0.26057

 Mulliken charges and spin densities:
               1          2
     1  Co   0.339455   1.969341
     2  H   -0.339455   0.030659
 Sum of Mulliken charges =  -0.00000   2.00000

 Dipole moment (field-independent basis, Debye):
    X=              0.0000    Y=              0.0000    Z=              3.8983  Tot=              3.8983
 Quadrupole moment (field-independent basis, Debye-Ang):
   XX=            -13.8484   YY=            -13.8485   ZZ=            -16.5576
   XY=              0.0000   XZ=              0.0000   YZ=              0.0000

 \\#P ROCCSD(T)=(MaxCyc=150, Full)/Gen SCF=(maxcycle=400, vshift=200) P
 PMP2-0=-146.279445\MP4SDQ=-146.2547986\CCSD=-146.2284004\CCSD(T)=-146.
 Normal termination of Gaussian 16 at Sat Apr 21 22:51:45 2018.
