 Gaussian 16, Revision A.03,
 Gaussian 16:  ES64L-G16RevA.03 25-Dec-2016

 ----------------------------------------------------------------------
 #P ROCCSD(T)=(MaxCyc=150, Full)/Gen SCF=(maxcycle=400, vshift=200) Pse
 udo=Read Integral(NoXCTest) Pop=Regular MaxDisk=500GB Guess=Read IOp(5
 /15=2)
 ----------------------------------------------------------------------

 ---
 CoH
 ---
 Symbolic Z-matrix:
 Charge =  0 Multiplicity = 3

                         Standard orientation:
 ---------------------------------------------------------------------
 Center     Atomic      Atomic             Coordinates (Angstroms)
 Number     Number       Type             X           Y           Z
 ---------------------------------------------------------------------
      1         27           0        0.000000    0.000000    0.046429
      2          1           0        0.000000    0.000000   -1.253571
 ---------------------------------------------------------------------

 SCF Done:  E(ROHF) =  -145.389925271     A.U. after   26 cycles
 E2 =    -0.9527657526D+00 EUMP2 =    -0.14634269102389D+03
 CCSD(T)
 CCSD(T)= -0.14631990636D+03

 Unable to determine electronic state:  partially filled degenerate orbitals.
 Alpha  occ. eigenvalues --   -4.40293  -2.92382  -2.92060  -2.92060  -0.50497
 Alpha  occ. eigenvalues --   -0.48622  -0.44291  -0.44291  -0.43929  -0.31847
 Alpha virt. eigenvalues --    0.00373   0.02381   0.02381   0.02608   0.04523
 Alpha virt. eigenvalues --    0.06478   0.06672   0.06683   0.06873   0.06873
 Alpha virt. eigenvalues --    0.08144   0.08144   0.08591   0.14761   0.18948

 Mulliken charges and spin densities:
               1          2
     1  Co   0.374055   1.969020
     2  H   -0.374055   0.030980
 Sum of Mulliken charges =  -0.00000   2.00000

 Dipole moment (field-independent basis, Debye):
    X=              0.0000    Y=              0.0000    Z=              3.8956  Tot=              3.8956
 Quadrupole moment (field-independent basis, Debye-Ang):
   XX=            -13.8350   YY=            -13.8350   ZZ=            -16.5569
   XY=              0.0000   XZ=              0.0000   YZ=              0.0000

 \\#P ROCCSD(T)=(MaxCyc=150, Full)/Gen SCF=(maxcycle=400, vshift=200) P
 PMP2-0=-146.342691\MP4SDQ=-146.310986\CCSD=-146.2855286\CCSD(T)=-146.3
 Normal termination of Gaussian 16 at Sat Apr 28 21:10:49 2018.
