 Gaussian 16, Revision A.03,
 Gaussian 16:  ES64L-G16RevA.03 25-Dec-2016

 ----------------------------------------------------------------------
 #P ROCCSD(T)=(MaxCyc=150, Full)/Gen SCF=(maxcycle=400, vshift=200) Pse
 udo=Read Integral(NoXCTest) Pop=Regular MaxDisk=500GB Guess=Read IOp(5
 /15=2)
 ----------------------------------------------------------------------

 ---
 CoH
 ---
 Symbolic Z-matrix:
 Charge =  0 Multiplicity = 3

                         Standard orientation:
 ---------------------------------------------------------------------
 Center     Atomic      Atomic             Coordinates (Angstroms)
 Number     Number       Type             X           Y           Z
 ---------------------------------------------------------------------
      1         27           0        0.000000    0.000000    0.046429
      2          1           0        0.000000    0.000000   -1.253571
 ---------------------------------------------------------------------

 SCF Done:  E(ROHF) =  -145.389444832     A.U. after   30 cycles
 E2 =    -0.9329173180D+00 EUMP2 =    -0.14632236214976D+03
 CCSD(T)
 CCSD(T)= -0.14630184009D+03

 Unable to determine electronic state:  partially filled degenerate orbitals.
 Alpha  occ. eigenvalues --   -4.40279  -2.92383  -2.92062  -2.92062  -0.50499
 Alpha  occ. eigenvalues --   -0.48624  -0.44285  -0.44285  -0.43924  -0.31847
 Alpha virt. eigenvalues --    0.00451   0.02460   0.02460   0.02908   0.05253
 Alpha virt. eigenvalues --    0.06993   0.07385   0.07399   0.07551   0.07551
 Alpha virt. eigenvalues --    0.08538   0.08538   0.09871   0.19045   0.20485

 Mulliken charges and spin densities:
               1          2
     1  Co   0.428605   1.992895
     2  H   -0.428605   0.007105
 Sum of Mulliken charges =  -0.00000   2.00000

 Dipole moment (field-independent basis, Debye):
    X=              0.0000    Y=              0.0000    Z=              3.8964  Tot=              3.8964
 Quadrupole moment (field-independent basis, Debye-Ang):
   XX=            -13.8357   YY=            -13.8357   ZZ=            -16.5566
   XY=              0.0000   XZ=              0.0000   YZ=              0.0000

 \\#P ROCCSD(T)=(MaxCyc=150, Full)/Gen SCF=(maxcycle=400, vshift=200) P
 \PMP2-0=-146.3223621\MP4SDQ=-146.2938873\CCSD=-146.268061\CCSD(T)=-146
 Normal termination of Gaussian 16 at Sat Apr 21 23:36:30 2018.
