 Gaussian 16, Revision A.03,
 Gaussian 16:  ES64L-G16RevA.03 25-Dec-2016

 ----------------------------------------------------------------------
 #P ROCCSD(T)=(maxcyc=150, Full)/Gen 5d 7f SCF=(maxcycles=300) Integral
 (NoXCTest) MaxDisk=500GB Pop=Regular Pseudo=Read Guess=Read
 ----------------------------------------------------------------------

 ---
 CrH
 ---
 Symbolic Z-matrix:
 Charge =  0 Multiplicity = 6

                         Standard orientation:
 ---------------------------------------------------------------------
 Center     Atomic      Atomic             Coordinates (Angstroms)
 Number     Number       Type             X           Y           Z
 ---------------------------------------------------------------------
      1         24           0        0.000000    0.000000    0.080000
      2          1           0        0.000000    0.000000   -1.920000
 ---------------------------------------------------------------------

 SCF Done:  E(ROHF) =  -86.6855142001     A.U. after   22 cycles
 E2 =    -0.5438896679D+00 EUMP2 =    -0.87229403867994D+02
 CCSD(T)
 CCSD(T)= -0.87282327021D+02

 The electronic state is 6-SG.
 Alpha  occ. eigenvalues --   -3.75372  -2.50868  -2.50868  -2.45887  -0.57846
 Alpha  occ. eigenvalues --   -0.57846  -0.54360  -0.54360  -0.37770  -0.26819
 Alpha virt. eigenvalues --    0.00970   0.00970   0.01841   0.02482   0.04490
 Alpha virt. eigenvalues --    0.04745   0.04745   0.05268   0.05268   0.05655
 Alpha virt. eigenvalues --    0.05655   0.06567   0.09673   0.12204   0.15819

 Mulliken charges and spin densities:
               1          2
     1  Cr   0.339192   4.975865
     2  H   -0.339192   0.024135
 Sum of Mulliken charges =  -0.00000   5.00000

 Dipole moment (field-independent basis, Debye):
    X=              0.0000    Y=              0.0000    Z=              2.9786  Tot=              2.9786
 Quadrupole moment (field-independent basis, Debye-Ang):
   XX=            -17.2558   YY=            -17.2558   ZZ=            -26.9160
   XY=              0.0000   XZ=              0.0000   YZ=              0.0000

 \\#P ROCCSD(T)=(maxcyc=150, Full)/Gen 5d 7f SCF=(maxcycles=300) Integr
 2294039\MP4SDQ=-87.2442024\CCSD=-87.266535\CCSD(T)=-87.282327\RMSD=2.9
 Normal termination of Gaussian 16 at Tue Feb 13 14:24:00 2018.
