 Gaussian 16, Revision A.03,
 Gaussian 16:  ES64L-G16RevA.03 25-Dec-2016

 ----------------------------------------------------------------------
 #P ROCCSD(T)=(maxcyc=150, Full)/Gen 5d 7f SCF=(maxcycles=300) Integral
 (NoXCTest) MaxDisk=500GB Pop=Regular Pseudo=Read IOp(5/15=2) Guess=Rea
 d
 ----------------------------------------------------------------------

 ---
 ScH
 ---
 Symbolic Z-matrix:
 Charge =  0 Multiplicity = 1

                         Standard orientation:
 ---------------------------------------------------------------------
 Center     Atomic      Atomic             Coordinates (Angstroms)
 Number     Number       Type             X           Y           Z
 ---------------------------------------------------------------------
      1         21           0        0.000000    0.000000    0.059091
      2          1           0        0.000000    0.000000   -1.240909
 ---------------------------------------------------------------------

 SCF Done:  E(ROHF) =  -46.5277917548     A.U. after   11 cycles
 E2 =    -0.4305093866D+00 EUMP2 =    -0.46958301141412D+02
 CCSD(T)
 CCSD(T)= -0.46996207225D+02

 The electronic state is 1-SG.
 Alpha  occ. eigenvalues --   -2.63516  -1.63453  -1.60492  -1.60492  -0.46180
 Alpha  occ. eigenvalues --   -0.21670
 Alpha virt. eigenvalues --    0.01303   0.01303   0.01461   0.01942   0.02889
 Alpha virt. eigenvalues --    0.02889   0.02898   0.02898   0.02903   0.04403
 Alpha virt. eigenvalues --    0.04427   0.04427   0.07923   0.08197   0.08197

 Mulliken charges and spin densities:
               1          2
     1  Sc   0.300969   0.000000
     2  H   -0.300969   0.000000
 Sum of Mulliken charges =  -0.00000   0.00000

 Dipole moment (field-independent basis, Debye):
    X=              0.0000    Y=              0.0000    Z=              0.6876  Tot=              0.6876
 Quadrupole moment (field-independent basis, Debye-Ang):
   XX=            -23.6206   YY=            -23.6206   ZZ=            -23.1322
   XY=              0.0000   XZ=              0.0000   YZ=              0.0000

 P ROCCSD(T)=(maxcyc=150, Full)/Gen 5d 7f SCF=(maxcycles=300) Integral(
 PMP2-0=-46.9583011\MP4SDQ=-46.978195\CCSD=-46.9776888\CCSD(T)=-46.9962
 Normal termination of Gaussian 16 at Tue Feb 13 20:42:17 2018.
