 Gaussian 16, Revision A.03,
 Gaussian 16:  ES64L-G16RevA.03 25-Dec-2016

 ----------------------------------------------------------------------
 #P ROCCSD(T)=(MaxCyc=150, Full)/Gen SCF=(maxcycle=400, vshift=200) Pse
 udo=Read Integral(NoXCTest) Pop=Regular MaxDisk=500GB Guess=Read IOp(5
 /15=2)
 ----------------------------------------------------------------------

 ---
 CoO
 ---
 Symbolic Z-matrix:
 Charge =  0 Multiplicity = 4

                         Standard orientation:
 ---------------------------------------------------------------------
 Center     Atomic      Atomic             Coordinates (Angstroms)
 Number     Number       Type             X           Y           Z
 ---------------------------------------------------------------------
      1         27           0        0.000000    0.000000    0.411429
      2          8           0        0.000000    0.000000   -1.388571
 ---------------------------------------------------------------------

 SCF Done:  E(ROHF) =  -159.977971399     A.U. after   27 cycles
 E2 =    -0.1053545745D+01 EUMP2 =    -0.16103151714481D+03
 CCSD(T)
 CCSD(T)= -0.16105569333D+03

 Unable to determine electronic state:  partially filled degenerate orbitals.
 Alpha  occ. eigenvalues --   -4.84843  -3.26511  -3.26511  -3.26462  -1.14436
 Alpha  occ. eigenvalues --   -0.76936  -0.76936  -0.76601  -0.71598  -0.69535
 Alpha  occ. eigenvalues --   -0.38593  -0.38593  -0.34852
 Alpha virt. eigenvalues --   -0.05166   0.01925   0.01925   0.02121   0.04159
 Alpha virt. eigenvalues --    0.07439   0.07439   0.09880   0.10636   0.10665
 Alpha virt. eigenvalues --    0.11532   0.11532   0.14556   0.15325   0.25867

 Mulliken charges and spin densities:
               1          2
     1  Co   0.978030   2.956699
     2  O   -0.978030   0.043301
 Sum of Mulliken charges =  -0.00000   3.00000

 Dipole moment (field-independent basis, Debye):
    X=              0.0000    Y=              0.0000    Z=              7.9455  Tot=              7.9455
 Quadrupole moment (field-independent basis, Debye-Ang):
   XX=            -19.2311   YY=            -19.2311   ZZ=            -22.9155
   XY=              0.0000   XZ=              0.0000   YZ=              0.0000

 \\#P ROCCSD(T)=(MaxCyc=150, Full)/Gen SCF=(maxcycle=400, vshift=200) P
 \PMP2-0=-161.0315171\MP4SDQ=-161.0084157\CCSD=-161.0008423\CCSD(T)=-16
 Normal termination of Gaussian 16 at Thu May  3 15:39:39 2018.
