 Gaussian 16, Revision A.03,
 Gaussian 16:  ES64L-G16RevA.03 25-Dec-2016

 ----------------------------------------------------------------------
 #P ROCCSD(T)=(MaxCyc=150, Full)/Gen SCF=(maxcycle=400, vshift=200) Pse
 udo=Read Integral(NoXCTest) Pop=Regular MaxDisk=500GB Guess=Read IOp(5
 /15=2)
 ----------------------------------------------------------------------

 ---
 CoO
 ---
 Symbolic Z-matrix:
 Charge =  0 Multiplicity = 4

                         Standard orientation:
 ---------------------------------------------------------------------
 Center     Atomic      Atomic             Coordinates (Angstroms)
 Number     Number       Type             X           Y           Z
 ---------------------------------------------------------------------
      1         27           0        0.000000    0.000000    0.411429
      2          8           0        0.000000    0.000000   -1.388571
 ---------------------------------------------------------------------

 SCF Done:  E(ROHF) =  -159.981319292     A.U. after   22 cycles
 E2 =    -0.1105042118D+01 EUMP2 =    -0.16108636141006D+03
 CCSD(T)
 CCSD(T)= -0.16110801781D+03

 Unable to determine electronic state:  partially filled degenerate orbitals.
 Alpha  occ. eigenvalues --   -4.84815  -3.26480  -3.26480  -3.26429  -1.14401
 Alpha  occ. eigenvalues --   -0.76926  -0.76926  -0.76592  -0.71591  -0.69522
 Alpha  occ. eigenvalues --   -0.38611  -0.38611  -0.34831
 Alpha virt. eigenvalues --   -0.05154   0.01649   0.01649   0.01885   0.03742
 Alpha virt. eigenvalues --    0.06555   0.06555   0.07033   0.07042   0.07115
 Alpha virt. eigenvalues --    0.08036   0.08036   0.12296   0.14331   0.20889

 Mulliken charges and spin densities:
               1          2
     1  Co   0.959898   2.956422
     2  O   -0.959898   0.043578
 Sum of Mulliken charges =  -0.00000   3.00000

 Dipole moment (field-independent basis, Debye):
    X=              0.0000    Y=              0.0000    Z=              7.9306  Tot=              7.9306
 Quadrupole moment (field-independent basis, Debye-Ang):
   XX=            -19.2271   YY=            -19.2271   ZZ=            -22.8965
   XY=              0.0000   XZ=              0.0000   YZ=              0.0000

 \\#P ROCCSD(T)=(MaxCyc=150, Full)/Gen SCF=(maxcycle=400, vshift=200) P
 PMP2-0=-161.0863614\MP4SDQ=-161.0575588\CCSD=-161.0509037\CCSD(T)=-161
 Normal termination of Gaussian 16 at Thu May  3 18:04:55 2018.
