 Gaussian 16, Revision A.03,
 Gaussian 16:  ES64L-G16RevA.03 25-Dec-2016

 ----------------------------------------------------------------------
 #P ROCCSD(T)=(MaxCyc=150, Full)/Gen SCF=(maxcycle=400, vshift=200) Pse
 udo=Read Integral(NoXCTest) Pop=Regular MaxDisk=500GB Guess=Read IOp(5
 /15=2)
 ----------------------------------------------------------------------

 ---
 CoH
 ---
 Symbolic Z-matrix:
 Charge =  0 Multiplicity = 3

                         Standard orientation:
 ---------------------------------------------------------------------
 Center     Atomic      Atomic             Coordinates (Angstroms)
 Number     Number       Type             X           Y           Z
 ---------------------------------------------------------------------
      1         27           0        0.000000    0.000000    0.039286
      2          1           0        0.000000    0.000000   -1.060714
 ---------------------------------------------------------------------

 SCF Done:  E(ROHF) =  -145.307312987     A.U. after   54 cycles
 E2 =    -0.9131197619D+00 EUMP2 =    -0.14622043274934D+03
 CCSD(T)
 CCSD(T)= -0.14619655297D+03

 Unable to determine electronic state:  partially filled degenerate orbitals.
 Alpha  occ. eigenvalues --   -4.41384  -2.93566  -2.92789  -2.92789  -0.53408
 Alpha  occ. eigenvalues --   -0.49141  -0.46089  -0.46089  -0.44638  -0.29619
 Alpha virt. eigenvalues --    0.01074   0.02666   0.02666   0.03009   0.06106
 Alpha virt. eigenvalues --    0.09075   0.09075   0.10217   0.11436   0.11459
 Alpha virt. eigenvalues --    0.11459   0.11476   0.11511   0.18613   0.26763

 Mulliken charges and spin densities:
               1          2
     1  Co   0.268510   1.990827
     2  H   -0.268510   0.009173
 Sum of Mulliken charges =  -0.00000   2.00000

 Dipole moment (field-independent basis, Debye):
    X=              0.0000    Y=              0.0000    Z=              3.2712  Tot=              3.2712
 Quadrupole moment (field-independent basis, Debye-Ang):
   XX=            -14.0813   YY=            -14.0813   ZZ=            -15.7762
   XY=              0.0000   XZ=              0.0000   YZ=              0.0000

 \\#P ROCCSD(T)=(MaxCyc=150, Full)/Gen SCF=(maxcycle=400, vshift=200) P
 MP2-0=-146.2204327\MP4SDQ=-146.1923248\CCSD=-146.1633557\CCSD(T)=-146.
 Normal termination of Gaussian 16 at Sun Apr 22 03:52:02 2018.
