 Gaussian 16, Revision A.03,
 Gaussian 16:  ES64L-G16RevA.03 25-Dec-2016

 ----------------------------------------------------------------------
 #P ROCCSD(T)=(MaxCyc=150, Full)/Gen SCF=(maxcycle=400, vshift=200) Pse
 udo=Read Integral(NoXCTest) Pop=Regular MaxDisk=500GB Guess=Read IOp(5
 /15=2)
 ----------------------------------------------------------------------

 ---
 CoH
 ---
 Symbolic Z-matrix:
 Charge =  0 Multiplicity = 3

                         Standard orientation:
 ---------------------------------------------------------------------
 Center     Atomic      Atomic             Coordinates (Angstroms)
 Number     Number       Type             X           Y           Z
 ---------------------------------------------------------------------
      1         27           0        0.000000    0.000000    0.039286
      2          1           0        0.000000    0.000000   -1.060714
 ---------------------------------------------------------------------

 SCF Done:  E(ROHF) =  -145.309177431     A.U. after   31 cycles
 E2 =    -0.9545183262D+00 EUMP2 =    -0.14626369575753D+03
 CCSD(T)
 CCSD(T)= -0.14623828220D+03

 Unable to determine electronic state:  partially filled degenerate orbitals.
 Alpha  occ. eigenvalues --   -4.41341  -2.93546  -2.92767  -2.92767  -0.53418
 Alpha  occ. eigenvalues --   -0.49143  -0.46097  -0.46097  -0.44643  -0.29617
 Alpha virt. eigenvalues --    0.01020   0.02446   0.02446   0.02771   0.05904
 Alpha virt. eigenvalues --    0.07092   0.07416   0.07428   0.07517   0.07517
 Alpha virt. eigenvalues --    0.08262   0.08262   0.09673   0.18714   0.21701

 Mulliken charges and spin densities:
               1          2
     1  Co   0.530507   2.010978
     2  H   -0.530507  -0.010978
 Sum of Mulliken charges =  -0.00000   2.00000

 Dipole moment (field-independent basis, Debye):
    X=              0.0000    Y=              0.0000    Z=              3.2717  Tot=              3.2717
 Quadrupole moment (field-independent basis, Debye-Ang):
   XX=            -14.0707   YY=            -14.0707   ZZ=            -15.7705
   XY=              0.0000   XZ=              0.0000   YZ=              0.0000

 \\#P ROCCSD(T)=(MaxCyc=150, Full)/Gen SCF=(maxcycle=400, vshift=200) P
 \PMP2-0=-146.2636958\MP4SDQ=-146.2317957\CCSD=-146.2034717\CCSD(T)=-14
 Normal termination of Gaussian 16 at Sun Apr 22 04:36:59 2018.
