 Gaussian 16, Revision A.03,
 Gaussian 16:  ES64L-G16RevA.03 25-Dec-2016

 ----------------------------------------------------------------------
 #P ROCCSD(T)=(maxcyc=150, Full, SaveAmplitudes, ReadAmplitudes)/Gen 5d
  7f SCF=(maxcycles=300, VShift=400) Integral(NoXCTest) MaxDisk=500GB P
 op=Full Pseudo=Read Guess=Read IOp(5/15=2)
 ----------------------------------------------------------------------

 ---
 ScO
 ---
 Symbolic Z-matrix:
 Charge =  0 Multiplicity = 2

                         Standard orientation:
 ---------------------------------------------------------------------
 Center     Atomic      Atomic             Coordinates (Angstroms)
 Number     Number       Type             X           Y           Z
 ---------------------------------------------------------------------
      1         21           0        0.000000    0.000000    0.358621
      2          8           0        0.000000    0.000000   -0.941379
 ---------------------------------------------------------------------

 SCF Done:  E(ROHF) =  -61.7563416552     A.U. after   61 cycles
 E2 =    -0.6630940265D+00 EUMP2 =    -0.62419435681640D+02
 CCSD(T)
 CCSD(T)= -0.62448267469D+02

 The electronic state is 2-SG.
 Alpha  occ. eigenvalues --   -2.57646  -1.76770  -1.53232  -1.53232  -1.06810
 Alpha  occ. eigenvalues --   -0.57941  -0.57941  -0.47196  -0.19387
 Alpha virt. eigenvalues --    0.00983   0.00983   0.02031   0.02515   0.03780
 Alpha virt. eigenvalues --    0.03780   0.03795   0.03795   0.03901   0.04776
 Alpha virt. eigenvalues --    0.04776   0.07335   0.10843   0.10843   0.11035

 Mulliken charges and spin densities:
               1          2
     1  Sc   1.189245   1.005224
     2  O   -1.189245  -0.005224
 Sum of Mulliken charges =  -0.00000   1.00000

 Dipole moment (field-independent basis, Debye):
    X=              0.0000    Y=              0.0000    Z=              0.1397  Tot=              0.1397
 Quadrupole moment (field-independent basis, Debye-Ang):
   XX=            -22.8155   YY=            -22.8155   ZZ=            -29.6949
   XY=              0.0000   XZ=              0.0000   YZ=              0.0000

 \\#P ROCCSD(T)=(maxcyc=150, Full, SaveAmplitudes, ReadAmplitudes)/Gen
 -62.4234389\CCSD=-62.4184646\CCSD(T)=-62.4482675\RMSD=4.834e-09\PG=C*V
 Normal termination of Gaussian 16 at Sat Mar 31 17:07:41 2018.
