 Gaussian 16, Revision A.03,
 Gaussian 16:  ES64L-G16RevA.03 25-Dec-2016

 ----------------------------------------------------------------------
 #P ROCCSD(T)=(maxcyc=150, Full)/Gen 5d 7f SCF=(maxcycles=300, NoVarAcc
 , VShift=300) MaxDisk=100GB Pop=Regular Pseudo=Read Guess=Read
 ----------------------------------------------------------------------

 --
 Sc
 --
 Symbolic Z-matrix:
 Charge =  0 Multiplicity = 2

                         Standard orientation:
 ---------------------------------------------------------------------
 Center     Atomic      Atomic             Coordinates (Angstroms)
 Number     Number       Type             X           Y           Z
 ---------------------------------------------------------------------
      1         21           0        0.000000    0.000000    0.000000
 ---------------------------------------------------------------------

 SCF Done:  E(ROHF) =  -46.1452966525     A.U. after   20 cycles
 E2 =    -0.3862122719D+00 EUMP2 =    -0.46531508924437D+02
 CCSD(T)
 CCSD(T)= -0.46566955040D+02

 Unable to determine electronic state:  an orbital has unidentified symmetry.
 Alpha  occ. eigenvalues --   -2.63134  -1.62542  -1.62542  -1.58676  -0.34722
 Alpha  occ. eigenvalues --   -0.21549
 Alpha virt. eigenvalues --    0.01186   0.01277   0.01277   0.02125   0.02886
 Alpha virt. eigenvalues --    0.02889   0.02889   0.02898   0.02919   0.04319
 Alpha virt. eigenvalues --    0.04440   0.04440   0.08096   0.08214   0.08214

 Mulliken charges and spin densities:
               1          2
     1  Sc  -0.000000   1.000000
 Sum of Mulliken charges =  -0.00000   1.00000

 Dipole moment (field-independent basis, Debye):
    X=              0.0000    Y=              0.0000    Z=              0.0000  Tot=              0.0000
 Quadrupole moment (field-independent basis, Debye-Ang):
   XX=            -23.3072   YY=            -23.3072   ZZ=            -23.0124
   XY=              0.0000   XZ=              0.0000   YZ=             -0.0000

 1\1\GINC-C416-121\SP\ROCCSD(T)-Full\Gen\Sc1(2)\AANNABE\12-Mar-2018\0\\
 #P ROCCSD(T)=(maxcyc=150, Full)/Gen 5d 7f SCF=(maxcycles=300, NoVarAcc
 , VShift=300) MaxDisk=100GB Pop=Regular Pseudo=Read Guess=Read\\Sc\\0,
 2\Sc,0,0.,0.,0.\\Version=ES64L-G16RevA.03\HF=-46.1452967\MP2=-46.53150
 89\MP3=-46.5516414\PUHF=-46.1452967\PMP2-0=-46.5315089\MP4SDQ=-46.5511
 366\CCSD=-46.5513682\CCSD(T)=-46.566955\RMSD=6.925e-09\PG=OH [O(Sc1)]\
 \@

 Normal termination of Gaussian 16 at Mon Mar 12 11:07:49 2018.
