 Gaussian 16, Revision A.03,
 Gaussian 16:  ES64L-G16RevA.03 25-Dec-2016

 ----------------------------------------------------------------------
 #P ROCCSD(T)=(maxcyc=150, Full, SaveAmplitudes, ReadAmplitudes)/Gen 5d
  7f SCF=(maxcycles=300) Integral(NoXCTest) MaxDisk=500GB Pop=Regular P
 seudo=Read Guess=Read
 ----------------------------------------------------------------------

 ---
 MnH
 ---
 Symbolic Z-matrix:
 Charge =  0 Multiplicity = 7

                         Standard orientation:
 ---------------------------------------------------------------------
 Center     Atomic      Atomic             Coordinates (Angstroms)
 Number     Number       Type             X           Y           Z
 ---------------------------------------------------------------------
      1         25           0        0.000000    0.000000    0.057692
      2          1           0        0.000000    0.000000   -1.442308
 ---------------------------------------------------------------------

 SCF Done:  E(ROHF) =  -104.235807046     A.U. after   20 cycles
 E2 =    -0.6198226566D+00 EUMP2 =    -0.10485562970290D+03
 CCSD(T)
 CCSD(T)= -0.10487709152D+03

 The electronic state is 7-SG.
 Alpha  occ. eigenvalues --   -4.09231  -2.75465  -2.75335  -2.75335  -0.64332
 Alpha  occ. eigenvalues --   -0.63428  -0.63428  -0.62854  -0.62854  -0.41762
 Alpha  occ. eigenvalues --   -0.25532
 Alpha virt. eigenvalues --    0.01253   0.01253   0.02069   0.03010   0.05086
 Alpha virt. eigenvalues --    0.05086   0.05684   0.05828   0.05828   0.06190
 Alpha virt. eigenvalues --    0.06190   0.08694   0.13799   0.14508   0.17983

 Mulliken charges and spin densities:
               1          2
     1  Mn   0.391639   5.943402
     2  H   -0.391639   0.056598
 Sum of Mulliken charges =  -0.00000   6.00000

 Dipole moment (field-independent basis, Debye):
    X=              0.0000    Y=              0.0000    Z=              0.6170  Tot=              0.6170
 Quadrupole moment (field-independent basis, Debye-Ang):
   XX=            -15.9119   YY=            -15.9119   ZZ=            -25.4744
   XY=              0.0000   XZ=              0.0000   YZ=              0.0000

 \\#P ROCCSD(T)=(maxcyc=150, Full, SaveAmplitudes, ReadAmplitudes)/Gen
 .235807\PMP2-0=-104.8556297\CCSD=-104.8596385\CCSD(T)=-104.8770915\RMS
 Normal termination of Gaussian 16 at Mon Feb 26 06:36:10 2018.
