 Gaussian 16, Revision A.03,
 Gaussian 16:  ES64L-G16RevA.03 25-Dec-2016

 ----------------------------------------------------------------------
 #P ROCCSD(T)=(maxcyc=150, FrzINGC)/Gen 5d 7f SCF=(maxcycles=300) Integ
 ral(NoXCTest, DKHSO) MaxDisk=500GB Pop=Regular IOp(5/15=2) Guess=Read
 ----------------------------------------------------------------------

 ---
 ScH
 ---
 Symbolic Z-matrix:
 Charge =  0 Multiplicity = 1

                         Standard orientation:
 ---------------------------------------------------------------------
 Center     Atomic      Atomic             Coordinates (Angstroms)
 Number     Number       Type             X           Y           Z
 ---------------------------------------------------------------------
      1         21           0        0.000000    0.000000    0.059091
      2          1           0        0.000000    0.000000   -1.240909
 ---------------------------------------------------------------------

 SCF Done:  E(ROHF) =  -763.760755794     A.U. after   11 cycles
 E2 =    -0.4049403820D+00 EUMP2 =    -0.76416569617645D+03
 CCSD(T)
 CCSD(T)= -0.76420261639D+03

 The electronic state is 1-SG.
 Alpha  occ. eigenvalues -- -166.84688 -19.29359 -15.71744 -15.71744 -15.71069
 Alpha  occ. eigenvalues --   -2.62465  -1.62908  -1.60059  -1.60059  -0.46200
 Alpha  occ. eigenvalues --   -0.21698
 Alpha virt. eigenvalues --    0.01292   0.01292   0.01493   0.01935   0.02888
 Alpha virt. eigenvalues --    0.02888   0.02897   0.02897   0.02902   0.04404
 Alpha virt. eigenvalues --    0.04404   0.04442   0.07922   0.08205   0.08205

 Mulliken charges and spin densities:
               1          2
     1  Sc   0.264086   0.000000
     2  H   -0.264086   0.000000
 Sum of Mulliken charges =  -0.00000   0.00000

 Dipole moment (field-independent basis, Debye):
    X=              0.0000    Y=              0.0000    Z=              0.5933  Tot=              0.5933
 Quadrupole moment (field-independent basis, Debye-Ang):
   XX=            -24.0079   YY=            -24.0079   ZZ=            -23.6665
   XY=             -0.0000   XZ=              0.0000   YZ=             -0.0000

  ROCCSD(T)=(maxcyc=150, FrzINGC)/Gen 5d 7f SCF=(maxcycles=300) Integra
 \PMP2-0=-764.1656962\MP4SDQ=-764.1860146\CCSD=-764.1858587\CCSD(T)=-76
 Normal termination of Gaussian 16 at Tue Feb 13 18:37:59 2018.
