 Gaussian 16, Revision A.03,
 Gaussian 16:  ES64L-G16RevA.03 25-Dec-2016

 ----------------------------------------------------------------------
 #P ROCCSD(T)=(maxcyc=150, Full, SaveAmplitudes, ReadAmplitudes)/Gen 5d
  7f SCF=(maxcycles=300) Integral(NoXCTest) MaxDisk=500GB Pop=Regular P
 seudo=Read Guess=Read IOp(5/15=2)
 ----------------------------------------------------------------------

 ---
 TiO
 ---
 Symbolic Z-matrix:
 Charge =  0 Multiplicity = 3

                         Standard orientation:
 ---------------------------------------------------------------------
 Center     Atomic      Atomic             Coordinates (Angstroms)
 Number     Number       Type             X           Y           Z
 ---------------------------------------------------------------------
      1         22           0        0.000000    0.000000    0.426667
      2          8           0        0.000000    0.000000   -1.173333
 ---------------------------------------------------------------------

 SCF Done:  E(ROHF) =  -73.4037845418     A.U. after   21 cycles
 E2 =    -0.7432511081D+00 EUMP2 =    -0.74147035649924D+02
 CCSD(T)
 CCSD(T)= -0.74176808738D+02

 Unable to determine electronic state:  an orbital has unidentified symmetry.
 Alpha  occ. eigenvalues --   -3.01977  -1.90752  -1.90752  -1.89723  -1.16624
 Alpha  occ. eigenvalues --   -0.46782  -0.45494  -0.45187  -0.45187  -0.26268
 Alpha virt. eigenvalues --    0.00386   0.00386   0.01597   0.02558   0.04124
 Alpha virt. eigenvalues --    0.04124   0.04808   0.04952   0.05182   0.05868
 Alpha virt. eigenvalues --    0.05868   0.06814   0.10769   0.11218   0.13811

 Mulliken charges and spin densities:
               1          2
     1  Ti   0.897531   1.999358
     2  O   -0.897531   0.000642
 Sum of Mulliken charges =  -0.00000   2.00000

 Dipole moment (field-independent basis, Debye):
    X=              0.0000    Y=              0.0000    Z=              4.1532  Tot=              4.1532
 Quadrupole moment (field-independent basis, Debye-Ang):
   XX=            -21.4919   YY=            -21.4919   ZZ=            -29.0869
   XY=              0.0000   XZ=              0.0000   YZ=              0.0000

 \\#P ROCCSD(T)=(maxcyc=150, Full, SaveAmplitudes, ReadAmplitudes)/Gen
 .1324099\CCSD(T)=-74.1768087\RMSD=3.910e-09\PG=C*V [C*(O1Ti1)]\\@
 Normal termination of Gaussian 16 at Sat Mar 10 18:21:12 2018.
