 Gaussian 16, Revision A.03,
 Gaussian 16:  ES64L-G16RevA.03 25-Dec-2016

 ----------------------------------------------------------------------
 #P ROCCSD(T)=(maxcyc=150, Full)/Gen 5d 7f SCF=(maxcycles=300) Integral
 (NoXCTest, DKHSO) MaxDisk=500GB Pop=Regular IOp(5/15=2) Guess=Read
 ----------------------------------------------------------------------

 ---
 CrH
 ---
 Symbolic Z-matrix:
 Charge =  0 Multiplicity = 6

                         Standard orientation:
 ---------------------------------------------------------------------
 Center     Atomic      Atomic             Coordinates (Angstroms)
 Number     Number       Type             X           Y           Z
 ---------------------------------------------------------------------
      1         24           0        0.000000    0.000000    0.084000
      2          1           0        0.000000    0.000000   -2.016000
 ---------------------------------------------------------------------

 SCF Done:  E(ROHF) =  -1050.18809033     A.U. after   26 cycles
 E2 =    -0.8997801344D+00 EUMP2 =    -0.10510878704597D+04
 CCSD(T)
 CCSD(T)= -0.10511301628D+04

 The electronic state is 6-SG.
 Alpha  occ. eigenvalues -- -222.24404 -26.83729 -22.47124 -22.47122 -22.47122
 Alpha  occ. eigenvalues --   -3.70892  -2.46322  -2.46322  -2.41939  -0.58583
 Alpha  occ. eigenvalues --   -0.58583  -0.55029  -0.55029  -0.37029  -0.26991
 Alpha virt. eigenvalues --    0.00915   0.00915   0.02166   0.02685   0.05147
 Alpha virt. eigenvalues --    0.05147   0.05252   0.07442   0.07442   0.07948
 Alpha virt. eigenvalues --    0.07948   0.09114   0.10540   0.16451   0.20306

 Mulliken charges and spin densities:
               1          2
     1  Cr   0.370981   4.975030
     2  H   -0.370981   0.024970
 Sum of Mulliken charges =  -0.00000   5.00000

 Dipole moment (field-independent basis, Debye):
    X=              0.0000    Y=              0.0000    Z=              3.2436  Tot=              3.2436
 Quadrupole moment (field-independent basis, Debye-Ang):
   XX=            -17.6415   YY=            -17.6415   ZZ=            -28.2511
   XY=              0.0000   XZ=              0.0000   YZ=              0.0000

 \\#P ROCCSD(T)=(maxcyc=150, Full)/Gen 5d 7f SCF=(maxcycles=300) Integr
 Normal termination of Gaussian 16 at Tue Feb 13 18:02:21 2018.
