 Gaussian 16, Revision A.03,
 Gaussian 16:  ES64L-G16RevA.03 25-Dec-2016

 ----------------------------------------------------------------------
 #P ROCCSD(T)=(maxcyc=150, Window=(7,0), SaveAmplitudes, ReadAmplitudes
 )/Gen 5d 7f SCF=(maxcycles=300) Integral(NoXCTest, DKHSO) MaxDisk=500G
 B Pop=Regular Guess=Read IOp(5/15=2)
 ----------------------------------------------------------------------

 ---
 ScO
 ---
 Symbolic Z-matrix:
 Charge =  0 Multiplicity = 2

                         Standard orientation:
 ---------------------------------------------------------------------
 Center     Atomic      Atomic             Coordinates (Angstroms)
 Number     Number       Type             X           Y           Z
 ---------------------------------------------------------------------
      1         21           0        0.000000    0.000000    0.386207
      2          8           0        0.000000    0.000000   -1.013793
 ---------------------------------------------------------------------

 SCF Done:  E(ROHF) =  -838.198780570     A.U. after   16 cycles
 E2 =    -0.6492071287D+00 EUMP2 =    -0.83884798769867D+03
 CCSD(T)
 CCSD(T)= -0.83887159122D+03

 The electronic state is 2-SG.
 Alpha  occ. eigenvalues -- -166.76922 -20.52484 -19.20695 -15.63050 -15.63050
 Alpha  occ. eigenvalues --  -15.62938  -2.57599  -1.70930  -1.54663  -1.54663
 Alpha  occ. eigenvalues --   -1.08181  -0.52422  -0.52422  -0.46061  -0.21042
 Alpha virt. eigenvalues --    0.00846   0.00846   0.02201   0.02229   0.03749
 Alpha virt. eigenvalues --    0.03749   0.03838   0.03838   0.03995   0.04565
 Alpha virt. eigenvalues --    0.04565   0.07113   0.10421   0.10421   0.10971

 Mulliken charges and spin densities:
               1          2
     1  Sc   1.274083   0.989661
     2  O   -1.274083   0.010339
 Sum of Mulliken charges =   0.00000   1.00000

 Dipole moment (field-independent basis, Debye):
    X=              0.0000    Y=              0.0000    Z=              1.5333  Tot=              1.5333
 Quadrupole moment (field-independent basis, Debye-Ang):
   XX=            -22.7665   YY=            -22.7665   ZZ=            -30.7960
   XY=              0.0000   XZ=              0.0000   YZ=              0.0000

 1\1\GINC-C483-112\SP\ROCCSD(T)-RW\Gen\O1Sc1(2)\AANNABE\20-Feb-2018\0\\
 #P ROCCSD(T)=(maxcyc=150, Window=(7,0), SaveAmplitudes, ReadAmplitudes
 )/Gen 5d 7f SCF=(maxcycles=300) Integral(NoXCTest, DKHSO) MaxDisk=500G
 B Pop=Regular Guess=Read IOp(5/15=2)\\ScO\\0,2\Sc,0,0.,0.,0.\O,0,0.,0.
 ,1.4\\Version=ES64L-G16RevA.03\State=2-SG\HF=-838.1987806\MP2=-838.847
 9877\MP3=-838.8308493\PUHF=-838.1987806\PMP2-0=-838.8479877\MP4SDQ=-83
 8.8492526\CCSD=-838.8407818\CCSD(T)=-838.8715912\RMSD=2.692e-09\PG=C*V
  [C*(O1Sc1)]\\@

 Normal termination of Gaussian 16 at Tue Feb 20 20:31:14 2018.
