 Gaussian 16, Revision A.03,
 Gaussian 16:  ES64L-G16RevA.03 25-Dec-2016

 ----------------------------------------------------------------------
 #P ROCCSD(T)=(MaxCyc=150, Full)/Gen SCF=(maxcycle=400) Pseudo=Read Int
 egral(NoXCTest) Pop=Regular MaxDisk=500GB Guess=Read IOp(5/15=2)
 ----------------------------------------------------------------------

 ---
 CoO
 ---
 Symbolic Z-matrix:
 Charge =  0 Multiplicity = 4

                         Standard orientation:
 ---------------------------------------------------------------------
 Center     Atomic      Atomic             Coordinates (Angstroms)
 Number     Number       Type             X           Y           Z
 ---------------------------------------------------------------------
      1         27           0        0.000000    0.000000    0.342857
      2          8           0        0.000000    0.000000   -1.157143
 ---------------------------------------------------------------------

 SCF Done:  E(ROHF) =  -160.636061464     A.U. after   21 cycles
 E2 =    -0.1146152291D+01 EUMP2 =    -0.16178221375493D+03
 CCSD(T)
 CCSD(T)= -0.16179633996D+03

 Unable to determine electronic state:  partially filled degenerate orbitals.
 Alpha  occ. eigenvalues --   -4.88918  -3.24931  -3.23851  -3.23851  -1.21444
 Alpha  occ. eigenvalues --   -0.77869  -0.77869  -0.75413  -0.70358  -0.67271
 Alpha  occ. eigenvalues --   -0.40806  -0.40806  -0.36421
 Alpha virt. eigenvalues --   -0.03413   0.02096   0.02096   0.02486   0.03707
 Alpha virt. eigenvalues --    0.06945   0.06945   0.07077   0.07207   0.07216
 Alpha virt. eigenvalues --    0.08742   0.08742   0.12776   0.14846   0.21348

 Mulliken charges and spin densities:
               1          2
     1  Co   0.972982   2.859154
     2  O   -0.972982   0.140846
 Sum of Mulliken charges =  -0.00000   3.00000

 Dipole moment (field-independent basis, Debye):
    X=              0.0000    Y=              0.0000    Z=              6.7718  Tot=              6.7718
 Quadrupole moment (field-independent basis, Debye-Ang):
   XX=            -18.8544   YY=            -18.8544   ZZ=            -20.6584
   XY=              0.0000   XZ=              0.0000   YZ=              0.0000

 \\#P ROCCSD(T)=(MaxCyc=150, Full)/Gen SCF=(maxcycle=400) Pseudo=Read I
 .7822138\MP4SDQ=-161.7519531\CCSD=-161.7404971\CCSD(T)=-161.79634\RMSD
 Normal termination of Gaussian 16 at Sat Mar 31 20:04:36 2018.
