 Gaussian 16, Revision A.03,
 Gaussian 16:  ES64L-G16RevA.03 25-Dec-2016

 ----------------------------------------------------------------------
 #P ROCCSD(T)=(MaxCyc=150, Full)/Gen SCF=(maxcycle=400) Pseudo=Read Int
 egral(NoXCTest) Pop=Regular MaxDisk=500GB Guess=Read IOp(5/15=2)
 ----------------------------------------------------------------------

 ---
 CoO
 ---
 Symbolic Z-matrix:
 Charge =  0 Multiplicity = 4

                         Standard orientation:
 ---------------------------------------------------------------------
 Center     Atomic      Atomic             Coordinates (Angstroms)
 Number     Number       Type             X           Y           Z
 ---------------------------------------------------------------------
      1         27           0        0.000000    0.000000    0.342857
      2          8           0        0.000000    0.000000   -1.157143
 ---------------------------------------------------------------------

 SCF Done:  E(ROHF) =  -160.632353517     A.U. after   24 cycles
 E2 =    -0.1094249048D+01 EUMP2 =    -0.16172660256495D+03
 CCSD(T)
 CCSD(T)= -0.16174334630D+03

 Unable to determine electronic state:  partially filled degenerate orbitals.
 Alpha  occ. eigenvalues --   -4.88928  -3.24953  -3.23869  -3.23869  -1.21503
 Alpha  occ. eigenvalues --   -0.77872  -0.77872  -0.75417  -0.70361  -0.67282
 Alpha  occ. eigenvalues --   -0.40796  -0.40796  -0.36436
 Alpha virt. eigenvalues --   -0.03418   0.02410   0.02410   0.02748   0.04095
 Alpha virt. eigenvalues --    0.08311   0.08311   0.10032   0.10989   0.11016
 Alpha virt. eigenvalues --    0.11793   0.11793   0.14792   0.15938   0.26114

 Mulliken charges and spin densities:
               1          2
     1  Co   1.029238   2.857393
     2  O   -1.029238   0.142607
 Sum of Mulliken charges =   0.00000   3.00000

 Dipole moment (field-independent basis, Debye):
    X=              0.0000    Y=              0.0000    Z=              6.7824  Tot=              6.7824
 Quadrupole moment (field-independent basis, Debye-Ang):
   XX=            -18.8568   YY=            -18.8568   ZZ=            -20.6763
   XY=              0.0000   XZ=              0.0000   YZ=              0.0000

 \\#P ROCCSD(T)=(MaxCyc=150, Full)/Gen SCF=(maxcycle=400) Pseudo=Read I
 .7266026\MP4SDQ=-161.7020122\CCSD=-161.6898113\CCSD(T)=-161.7433463\RM
 Normal termination of Gaussian 16 at Sat Mar 31 17:56:40 2018.
