 Gaussian 16, Revision A.03,
 Gaussian 16:  ES64L-G16RevA.03 25-Dec-2016

 ----------------------------------------------------------------------
 #P ROCCSD(T)=(maxcyc=150, Full, SaveAmplitudes, ReadAmplitudes)/Gen 5d
  7f SCF=(maxcycles=300, VShift=400) Integral(NoXCTest) MaxDisk=500GB P
 op=Full Pseudo=Read Guess=Read
 ----------------------------------------------------------------------

 ---
 ScH
 ---
 Symbolic Z-matrix:
 Charge =  0 Multiplicity = 1

                         Standard orientation:
 ---------------------------------------------------------------------
 Center     Atomic      Atomic             Coordinates (Angstroms)
 Number     Number       Type             X           Y           Z
 ---------------------------------------------------------------------
      1         21           0        0.000000    0.000000    0.100000
      2          1           0        0.000000    0.000000   -2.100000
 ---------------------------------------------------------------------

 SCF Done:  E(ROHF) =  -46.6548994327     A.U. after   17 cycles
 E2 =    -0.4175409630D+00 EUMP2 =    -0.47072440395651D+02
 CCSD(T)
 CCSD(T)= -0.47120968781D+02

 The electronic state is 1-SG.
 Alpha  occ. eigenvalues --   -2.71643  -1.69986  -1.69986  -1.69786  -0.35693
 Alpha  occ. eigenvalues --   -0.24602
 Alpha virt. eigenvalues --    0.00819   0.00819   0.00957   0.02084   0.02793
 Alpha virt. eigenvalues --    0.02793   0.02958   0.02958   0.03049   0.03439
 Alpha virt. eigenvalues --    0.03728   0.03728   0.06137   0.06137   0.07162

 Mulliken charges and spin densities:
               1          2
     1  Sc   0.269856   0.000000
     2  H   -0.269856   0.000000
 Sum of Mulliken charges =  -0.00000   0.00000

 Dipole moment (field-independent basis, Debye):
    X=              0.0000    Y=              0.0000    Z=              2.9837  Tot=              2.9837
 Quadrupole moment (field-independent basis, Debye-Ang):
   XX=            -22.8815   YY=            -22.8815   ZZ=            -30.0914
   XY=              0.0000   XZ=              0.0000   YZ=              0.0000

 P ROCCSD(T)=(maxcyc=150, Full, SaveAmplitudes, ReadAmplitudes)/Gen 5d
 =-46.6548994\PMP2-0=-47.0724404\CCSD=-47.1001946\CCSD(T)=-47.1209688\R
 Normal termination of Gaussian 16 at Thu Apr 19 08:11:27 2018.
