 Gaussian 16, Revision A.03,
 Gaussian 16:  ES64L-G16RevA.03 25-Dec-2016

 ----------------------------------------------------------------------
 #P ROCCSD(T)=(maxcyc=150, Full, SaveAmplitudes, ReadAmplitudes)/Gen 5d
  7f SCF=(maxcycles=300, VShift=400) Integral(NoXCTest) MaxDisk=500GB P
 op=Full Pseudo=Read Guess=Read IOp(5/15=2)
 ----------------------------------------------------------------------

 ---
 MnH
 ---
 Symbolic Z-matrix:
 Charge =  0 Multiplicity = 7

                         Standard orientation:
 ---------------------------------------------------------------------
 Center     Atomic      Atomic             Coordinates (Angstroms)
 Number     Number       Type             X           Y           Z
 ---------------------------------------------------------------------
      1         25           0        0.000000    0.000000    0.053846
      2          1           0        0.000000    0.000000   -1.346154
 ---------------------------------------------------------------------

 SCF Done:  E(ROHF) =  -103.756219003     A.U. after   43 cycles
 E2 =    -0.5851293100D+00 EUMP2 =    -0.10434134831292D+03
 CCSD(T)
 CCSD(T)= -0.10436236125D+03

 The electronic state is 7-SG.
 Alpha  occ. eigenvalues --   -4.13906  -2.76205  -2.75979  -2.75979  -0.65544
 Alpha  occ. eigenvalues --   -0.63740  -0.63740  -0.63318  -0.63318  -0.41944
 Alpha  occ. eigenvalues --   -0.24819
 Alpha virt. eigenvalues --    0.01376   0.01376   0.02202   0.03235   0.05858
 Alpha virt. eigenvalues --    0.05858   0.08516   0.08516   0.08536   0.08962
 Alpha virt. eigenvalues --    0.08962   0.09224   0.14171   0.21137   0.22808

 Mulliken charges and spin densities:
               1          2
     1  Mn   0.444169   5.950068
     2  H   -0.444169   0.049932
 Sum of Mulliken charges =  -0.00000   6.00000

 Dipole moment (field-independent basis, Debye):
    X=              0.0000    Y=              0.0000    Z=              0.2892  Tot=              0.2892
 Quadrupole moment (field-independent basis, Debye-Ang):
   XX=            -16.0048   YY=            -16.0048   ZZ=            -25.4735
   XY=              0.0000   XZ=              0.0000   YZ=              0.0000

 \\#P ROCCSD(T)=(maxcyc=150, Full, SaveAmplitudes, ReadAmplitudes)/Gen
 DQ=-104.345141\CCSD=-104.3459641\CCSD(T)=-104.3623612\RMSD=9.794e-09\P
 Normal termination of Gaussian 16 at Thu Apr 19 08:55:49 2018.
