 Gaussian 16, Revision A.03,
 Gaussian 16:  ES64L-G16RevA.03 25-Dec-2016

 ----------------------------------------------------------------------
 #P ROCCSD(T)=(maxcyc=150, Full, SaveAmplitudes, ReadAmplitudes)/Gen 5d
  7f SCF=(maxcycles=300) Integral(NoXCTest) MaxDisk=500GB Pop=Regular P
 seudo=Read Guess=Read IOp(5/15=2)
 ----------------------------------------------------------------------

 ---
 CrO
 ---
 Symbolic Z-matrix:
 Charge =  0 Multiplicity = 5

                         Standard orientation:
 ---------------------------------------------------------------------
 Center     Atomic      Atomic             Coordinates (Angstroms)
 Number     Number       Type             X           Y           Z
 ---------------------------------------------------------------------
      1         24           0        0.000000    0.000000    0.325000
      2          8           0        0.000000    0.000000   -0.975000
 ---------------------------------------------------------------------

 SCF Done:  E(ROHF) =  -101.904697588     A.U. after   29 cycles
 E2 =    -0.9021641567D+00 EUMP2 =    -0.10280686174510D+03
 CCSD(T)
 CCSD(T)= -0.10281975289D+03

 Unable to determine electronic state:  an orbital has unidentified symmetry.
 Alpha  occ. eigenvalues --   -3.67406  -2.44315  -2.42537  -2.40030  -1.23934
 Alpha  occ. eigenvalues --   -0.68673  -0.59895  -0.59650  -0.51341  -0.50946
 Alpha  occ. eigenvalues --   -0.35488  -0.27333
 Alpha virt. eigenvalues --    0.01299   0.02323   0.02472   0.02869   0.05177
 Alpha virt. eigenvalues --    0.06526   0.07312   0.07734   0.07738   0.07887
 Alpha virt. eigenvalues --    0.08753   0.09792   0.12248   0.17074   0.19041

 Mulliken charges and spin densities:
               1          2
     1  Cr   0.928009   3.772593
     2  O   -0.928009   0.227407
 Sum of Mulliken charges =   0.00000   4.00000

 Dipole moment (field-independent basis, Debye):
    X=              0.0000    Y=              0.0000    Z=              1.7525  Tot=              1.7525
 Quadrupole moment (field-independent basis, Debye-Ang):
   XX=            -21.4179   YY=            -19.6797   ZZ=            -23.6079
   XY=              0.0000   XZ=              0.0000   YZ=              0.0000

 \\#P ROCCSD(T)=(maxcyc=150, Full, SaveAmplitudes, ReadAmplitudes)/Gen
 SD=-102.7769039\CCSD(T)=-102.8197529\RMSD=7.639e-09\PG=C*V [C*(O1Cr1)]
 Normal termination of Gaussian 16 at Tue Mar 13 01:59:46 2018.
