 Gaussian 16, Revision A.03,
 Gaussian 16:  ES64L-G16RevA.03 25-Dec-2016

 ----------------------------------------------------------------------
 #P ROCCSD(T)=(maxcyc=150, Full)/Gen 5d 7f SCF=(maxcycles=200,NoVarAcc,
  VShift=300) MaxDisk=100GB Pop=Regular Pseudo=Read Guess=Read IOp(5/15
 =2)
 ----------------------------------------------------------------------

 --
 Cr
 --
 Symbolic Z-matrix:
 Charge =  0 Multiplicity = 7

                         Standard orientation:
 ---------------------------------------------------------------------
 Center     Atomic      Atomic             Coordinates (Angstroms)
 Number     Number       Type             X           Y           Z
 ---------------------------------------------------------------------
      1         24           0        0.000000    0.000000    0.000000
 ---------------------------------------------------------------------

 SCF Done:  E(ROHF) =  -86.1283343862     A.U. after   28 cycles
 E2 =    -0.5248115269D+00 EUMP2 =    -0.86653145913015D+02
 CCSD(T)
 CCSD(T)= -0.86664726058D+02

 The electronic state is 7-A1G.
 Alpha  occ. eigenvalues --   -3.57474  -2.32338  -2.32338  -2.32338  -0.36885
 Alpha  occ. eigenvalues --   -0.36885  -0.36885  -0.36885  -0.36885  -0.22622
 Alpha virt. eigenvalues --    0.01793   0.01793   0.01793   0.03170   0.06513
 Alpha virt. eigenvalues --    0.06513   0.06513   0.07935   0.07935   0.07935
 Alpha virt. eigenvalues --    0.07935   0.07935   0.21080   0.23177   0.23177

 Mulliken charges and spin densities:
               1          2
     1  Cr   0.000000   6.000000
 Sum of Mulliken charges =   0.00000   6.00000

 Dipole moment (field-independent basis, Debye):
    X=              0.0000    Y=              0.0000    Z=              0.0000  Tot=              0.0000
 Quadrupole moment (field-independent basis, Debye-Ang):
   XX=            -16.4599   YY=            -16.4599   ZZ=            -16.4599
   XY=             -0.0000   XZ=              0.0000   YZ=             -0.0000

 1\1\GINC-C506-012\SP\ROCCSD(T)-Full\Gen\Cr1(7)\AANNABE\16-Mar-2018\0\\
 #P ROCCSD(T)=(maxcyc=150, Full)/Gen 5d 7f SCF=(maxcycles=200,NoVarAcc,
  VShift=300) MaxDisk=100GB Pop=Regular Pseudo=Read Guess=Read IOp(5/15
 =2)\\Cr\\0,7\Cr,0,0.,0.,0.\\Version=ES64L-G16RevA.03\State=7-A1G\HF=-8
 6.1283344\MP2=-86.6531459\MP3=-86.6458959\PUHF=-86.1283344\PMP2-0=-86.
 6531459\MP4SDQ=-86.649772\CCSD=-86.6487716\CCSD(T)=-86.6647261\RMSD=8.
 719e-09\PG=OH [O(Cr1)]\\@

 Normal termination of Gaussian 16 at Fri Mar 16 16:06:09 2018.
