 Gaussian 16, Revision A.03,
 Gaussian 16:  ES64L-G16RevA.03 25-Dec-2016

 ----------------------------------------------------------------------
 #P ROCCSD(T)=(maxcyc=150, Full)/Gen 5d 7f SCF=(maxcycles=300) Integral
 (NoXCTest) MaxDisk=500GB Pop=Regular Pseudo=Read IOp(5/15=2) Guess=Rea
 d
 ----------------------------------------------------------------------

 ---
 ScH
 ---
 Symbolic Z-matrix:
 Charge =  0 Multiplicity = 1

                         Standard orientation:
 ---------------------------------------------------------------------
 Center     Atomic      Atomic             Coordinates (Angstroms)
 Number     Number       Type             X           Y           Z
 ---------------------------------------------------------------------
      1         21           0        0.000000    0.000000    0.100000
      2          1           0        0.000000    0.000000   -2.100000
 ---------------------------------------------------------------------

 SCF Done:  E(ROHF) =  -46.7756918760     A.U. after   12 cycles
 E2 =    -0.4032372565D+00 EUMP2 =    -0.47178929132435D+02
 CCSD(T)
 CCSD(T)= -0.47228644952D+02

 The electronic state is 1-SG.
 Alpha  occ. eigenvalues --   -2.76486  -1.69712  -1.69712  -1.69506  -0.35746
 Alpha  occ. eigenvalues --   -0.24754
 Alpha virt. eigenvalues --    0.00886   0.00886   0.01069   0.02312   0.03601
 Alpha virt. eigenvalues --    0.03716   0.03716   0.03953   0.03953   0.04058
 Alpha virt. eigenvalues --    0.04194   0.04194   0.06815   0.06815   0.07987

 Mulliken charges and spin densities:
               1          2
     1  Sc   0.302332   0.000000
     2  H   -0.302332   0.000000
 Sum of Mulliken charges =  -0.00000   0.00000

 Dipole moment (field-independent basis, Debye):
    X=              0.0000    Y=              0.0000    Z=              2.9684  Tot=              2.9684
 Quadrupole moment (field-independent basis, Debye-Ang):
   XX=            -22.7287   YY=            -22.7287   ZZ=            -30.0568
   XY=              0.0000   XZ=              0.0000   YZ=              0.0000

 P ROCCSD(T)=(maxcyc=150, Full)/Gen 5d 7f SCF=(maxcycles=300) Integral(
 PMP2-0=-47.1789291\MP4SDQ=-47.2083481\CCSD=-47.2090089\CCSD(T)=-47.228
 Normal termination of Gaussian 16 at Wed Feb 14 12:01:23 2018.
