 Gaussian 16, Revision A.03,
 Gaussian 16:  ES64L-G16RevA.03 25-Dec-2016

 ----------------------------------------------------------------------
 #P ROCCSD(T)=(maxcyc=150, Full, SaveAmplitudes, ReadAmplitudes)/Gen 5d
  7f SCF=(maxcycles=300) Integral(NoXCTest) MaxDisk=500GB Pop=Regular P
 seudo=Read Guess=Read IOp(5/15=2)
 ----------------------------------------------------------------------

 ---
 TiO
 ---
 Symbolic Z-matrix:
 Charge =  0 Multiplicity = 3

                         Standard orientation:
 ---------------------------------------------------------------------
 Center     Atomic      Atomic             Coordinates (Angstroms)
 Number     Number       Type             X           Y           Z
 ---------------------------------------------------------------------
      1         22           0        0.000000    0.000000    0.400000
      2          8           0        0.000000    0.000000   -1.100000
 ---------------------------------------------------------------------

 SCF Done:  E(ROHF) =  -73.5243495225     A.U. after   21 cycles
 E2 =    -0.7421689607D+00 EUMP2 =    -0.74266518483247D+02
 CCSD(T)
 CCSD(T)= -0.74293701012D+02

 Unable to determine electronic state:  an orbital has unidentified symmetry.
 Alpha  occ. eigenvalues --   -3.01134  -1.89772  -1.87607  -1.87607  -1.16960
 Alpha  occ. eigenvalues --   -0.48798  -0.48798  -0.48439  -0.42531  -0.25012
 Alpha virt. eigenvalues --    0.00751   0.00751   0.01875   0.02599   0.04409
 Alpha virt. eigenvalues --    0.04409   0.04958   0.05048   0.05236   0.05847
 Alpha virt. eigenvalues --    0.05847   0.07443   0.11332   0.11976   0.14136

 Mulliken charges and spin densities:
               1          2
     1  Ti   0.861176   2.008928
     2  O   -0.861176  -0.008928
 Sum of Mulliken charges =  -0.00000   2.00000

 Dipole moment (field-independent basis, Debye):
    X=              0.0000    Y=              0.0000    Z=              3.1784  Tot=              3.1784
 Quadrupole moment (field-independent basis, Debye-Ang):
   XX=            -21.4473   YY=            -21.4473   ZZ=            -28.1962
   XY=              0.0000   XZ=              0.0000   YZ=              0.0000

 \\#P ROCCSD(T)=(maxcyc=150, Full, SaveAmplitudes, ReadAmplitudes)/Gen
 .2525856\CCSD(T)=-74.293701\RMSD=7.622e-09\PG=C*V [C*(O1Ti1)]\\@
 Normal termination of Gaussian 16 at Mon Mar 12 23:13:18 2018.
