 Gaussian 16, Revision A.03,
 Gaussian 16:  ES64L-G16RevA.03 25-Dec-2016

 ----------------------------------------------------------------------
 #P ROCCSD(T)=(MaxCyc=150, Full)/Gen SCF=(maxcycle=400, vshift=200) Pse
 udo=Read Integral(NoXCTest) Pop=Regular MaxDisk=500GB Guess=Read IOp(5
 /15=2)
 ----------------------------------------------------------------------

 ---
 FeH
 ---
 Symbolic Z-matrix:
 Charge =  0 Multiplicity = 4

                         Standard orientation:
 ---------------------------------------------------------------------
 Center     Atomic      Atomic             Coordinates (Angstroms)
 Number     Number       Type             X           Y           Z
 ---------------------------------------------------------------------
      1         26           0        0.000000    0.000000    0.066667
      2          1           0        0.000000    0.000000   -1.733333
 ---------------------------------------------------------------------

 SCF Done:  E(ROHF) =  -123.113889961     A.U. after   19 cycles
 E2 =    -0.8063635749D+00 EUMP2 =    -0.12392025353541D+03
 CCSD(T)
 CCSD(T)= -0.12392201054D+03

 Unable to determine electronic state:  an orbital has unidentified symmetry.
 Alpha  occ. eigenvalues --   -4.23266  -2.76450  -2.76167  -2.76167  -0.48827
 Alpha  occ. eigenvalues --   -0.48827  -0.48568  -0.43637  -0.42901  -0.31754
 Alpha virt. eigenvalues --   -0.00884   0.02062   0.02062   0.02730   0.03113
 Alpha virt. eigenvalues --    0.05746   0.06149   0.06160   0.06367   0.06367
 Alpha virt. eigenvalues --    0.07344   0.07344   0.08874   0.12713   0.15913

 Mulliken charges and spin densities:
               1          2
     1  Fe   0.303766   2.997199
     2  H   -0.303766   0.002801
 Sum of Mulliken charges =  -0.00000   3.00000

 Dipole moment (field-independent basis, Debye):
    X=              0.0000    Y=              0.0000    Z=              4.9937  Tot=              4.9937
 Quadrupole moment (field-independent basis, Debye-Ang):
   XX=            -15.3331   YY=            -15.3331   ZZ=            -19.0870
   XY=              0.0000   XZ=              0.0000   YZ=              0.0000

 \\#P ROCCSD(T)=(MaxCyc=150, Full)/Gen SCF=(maxcycle=400, vshift=200) P
 2-0=-123.9202535\MP4SDQ=-123.8989936\CCSD=-123.8933587\CCSD(T)=-123.92
 Normal termination of Gaussian 16 at Mon Apr 23 00:01:18 2018.
