 Gaussian 16, Revision A.03,
 Gaussian 16:  ES64L-G16RevA.03 25-Dec-2016

 ----------------------------------------------------------------------
 #P ROCCSD(T)=(MaxCyc=150, Full)/Gen SCF=(maxcycle=400, vshift=200) Pse
 udo=Read Integral(NoXCTest) Pop=Regular MaxDisk=500GB Guess=Read IOp(5
 /15=2)
 ----------------------------------------------------------------------

 ---
 FeH
 ---
 Symbolic Z-matrix:
 Charge =  0 Multiplicity = 4

                         Standard orientation:
 ---------------------------------------------------------------------
 Center     Atomic      Atomic             Coordinates (Angstroms)
 Number     Number       Type             X           Y           Z
 ---------------------------------------------------------------------
      1         26           0        0.000000    0.000000    0.066667
      2          1           0        0.000000    0.000000   -1.733333
 ---------------------------------------------------------------------

 SCF Done:  E(ROHF) =  -123.112604426     A.U. after   40 cycles
 E2 =    -0.7563396213D+00 EUMP2 =    -0.12386894404685D+03
 CCSD(T)
 CCSD(T)= -0.12387478902D+03

 Unable to determine electronic state:  an orbital has unidentified symmetry.
 Alpha  occ. eigenvalues --   -4.23268  -2.76460  -2.76175  -2.76175  -0.48826
 Alpha  occ. eigenvalues --   -0.48826  -0.48567  -0.43629  -0.42889  -0.31752
 Alpha virt. eigenvalues --   -0.00855   0.02368   0.02368   0.03375   0.03866
 Alpha virt. eigenvalues --    0.08406   0.08406   0.09473   0.10102   0.10144
 Alpha virt. eigenvalues --    0.10383   0.10383   0.11025   0.17044   0.22766

 Mulliken charges and spin densities:
               1          2
     1  Fe   0.427983   2.998874
     2  H   -0.427983   0.001126
 Sum of Mulliken charges =  -0.00000   3.00000

 Dipole moment (field-independent basis, Debye):
    X=              0.0000    Y=              0.0000    Z=              4.9995  Tot=              4.9995
 Quadrupole moment (field-independent basis, Debye-Ang):
   XX=            -15.3484   YY=            -15.3484   ZZ=            -19.0717
   XY=              0.0000   XZ=              0.0000   YZ=              0.0000

 \\#P ROCCSD(T)=(MaxCyc=150, Full)/Gen SCF=(maxcycle=400, vshift=200) P
 PMP2-0=-123.868944\MP4SDQ=-123.8538352\CCSD=-123.8490825\CCSD(T)=-123.
 Normal termination of Gaussian 16 at Sun Apr 22 23:02:45 2018.
