 Gaussian 16, Revision A.03,
 Gaussian 16:  ES64L-G16RevA.03 25-Dec-2016

 ----------------------------------------------------------------------
 #P ROCCSD(T)=(MaxCyc=150, Full)/Gen SCF=(maxcycle=400, vshift=200) Pse
 udo=Read Integral(NoXCTest) Pop=Regular MaxDisk=500GB Guess=Read IOp(5
 /15=2)
 ----------------------------------------------------------------------

 ---
 FeH
 ---
 Symbolic Z-matrix:
 Charge =  0 Multiplicity = 4

                         Standard orientation:
 ---------------------------------------------------------------------
 Center     Atomic      Atomic             Coordinates (Angstroms)
 Number     Number       Type             X           Y           Z
 ---------------------------------------------------------------------
      1         26           0        0.000000    0.000000    0.066667
      2          1           0        0.000000    0.000000   -1.733333
 ---------------------------------------------------------------------

 SCF Done:  E(ROHF) =  -123.113679386     A.U. after   31 cycles
 E2 =    -0.7921153264D+00 EUMP2 =    -0.12390579471244D+03
 CCSD(T)
 CCSD(T)= -0.12390959954D+03

 Unable to determine electronic state:  an orbital has unidentified symmetry.
 Alpha  occ. eigenvalues --   -4.23268  -2.76454  -2.76170  -2.76170  -0.48830
 Alpha  occ. eigenvalues --   -0.48830  -0.48571  -0.43634  -0.42897  -0.31754
 Alpha virt. eigenvalues --   -0.00865   0.02128   0.02128   0.03091   0.03587
 Alpha virt. eigenvalues --    0.06215   0.06712   0.06726   0.06874   0.06874
 Alpha virt. eigenvalues --    0.07709   0.07709   0.10177   0.15710   0.17737

 Mulliken charges and spin densities:
               1          2
     1  Fe   0.348670   2.997973
     2  H   -0.348670   0.002027
 Sum of Mulliken charges =  -0.00000   3.00000

 Dipole moment (field-independent basis, Debye):
    X=              0.0000    Y=              0.0000    Z=              4.9940  Tot=              4.9940
 Quadrupole moment (field-independent basis, Debye-Ang):
   XX=            -15.3356   YY=            -15.3356   ZZ=            -19.0836
   XY=              0.0000   XZ=              0.0000   YZ=              0.0000

 \\#P ROCCSD(T)=(MaxCyc=150, Full)/Gen SCF=(maxcycle=400, vshift=200) P
 \PMP2-0=-123.9057947\MP4SDQ=-123.8871375\CCSD=-123.8817158\CCSD(T)=-12
 Normal termination of Gaussian 16 at Sun Apr 22 23:19:28 2018.
