 Gaussian 16, Revision A.03,
 Gaussian 16:  ES64L-G16RevA.03 25-Dec-2016

 ----------------------------------------------------------------------
 #P ROCCSD(T)=(MaxCyc=150, Full)/Gen SCF=(maxcycle=400) Pseudo=Read Int
 egral(NoXCTest) Pop=Regular MaxDisk=500GB Guess=Read
 ----------------------------------------------------------------------

 --
 Zn
 --
 Symbolic Z-matrix:
 Charge =  0 Multiplicity = 1

                         Standard orientation:
 ---------------------------------------------------------------------
 Center     Atomic      Atomic             Coordinates (Angstroms)
 Number     Number       Type             X           Y           Z
 ---------------------------------------------------------------------
      1         30           0        0.000000    0.000000    0.000000
 ---------------------------------------------------------------------

 SCF Done:  E(ROHF) =  -225.275023504     A.U. after    8 cycles
 E2 =    -0.1110188256D+01 EUMP2 =    -0.22638521175944D+03
 CCSD(T)
 CCSD(T)= -0.22633029747D+03

 The electronic state is 1-A1G.
 Alpha  occ. eigenvalues --   -5.84404  -3.92219  -3.92219  -3.92219  -0.76332
 Alpha  occ. eigenvalues --   -0.76332  -0.76332  -0.76332  -0.76332  -0.29838
 Alpha virt. eigenvalues --    0.02392   0.02392   0.02392   0.02660   0.07421
 Alpha virt. eigenvalues --    0.07421   0.07421   0.13214   0.16240   0.16240
 Alpha virt. eigenvalues --    0.16240   0.16240   0.16240   0.23056   0.23056

 Mulliken charges and spin densities:
               1          2
     1  Zn  -0.000000   0.000000
 Sum of Mulliken charges =  -0.00000   0.00000

 Dipole moment (field-independent basis, Debye):
    X=              0.0000    Y=              0.0000    Z=              0.0000  Tot=              0.0000
 Quadrupole moment (field-independent basis, Debye-Ang):
   XX=            -15.2578   YY=            -15.2578   ZZ=            -15.2578
   XY=             -0.0000   XZ=              0.0000   YZ=              0.0000

 ROCCSD(T)=(MaxCyc=150, Full)/Gen SCF=(maxcycle=400) Pseudo=Read Integr
 .3295675\CCSD=-226.2999245\CCSD(T)=-226.3302975\RMSD=5.123e-09\PG=OH [
 Normal termination of Gaussian 16 at Sun May  6 12:17:50 2018.
