 Gaussian 16, Revision A.03,
 Gaussian 16:  ES64L-G16RevA.03 25-Dec-2016

 ----------------------------------------------------------------------
 #P ROCCSD(T)=(MaxCyc=150, Full)/Gen SCF=(maxcycle=400) Pseudo=Read Int
 egral(NoXCTest) Pop=Regular MaxDisk=500GB Guess=Read IOp(5/15=2)
 ----------------------------------------------------------------------

 --
 Zn
 --
 Symbolic Z-matrix:
 Charge =  0 Multiplicity = 1

                         Standard orientation:
 ---------------------------------------------------------------------
 Center     Atomic      Atomic             Coordinates (Angstroms)
 Number     Number       Type             X           Y           Z
 ---------------------------------------------------------------------
      1         30           0        0.000000    0.000000    0.000000
 ---------------------------------------------------------------------

 SCF Done:  E(ROHF) =  -225.274949298     A.U. after    8 cycles
 E2 =    -0.1083701653D+01 EUMP2 =    -0.22635865095080D+03
 CCSD(T)
 CCSD(T)= -0.22630576444D+03

 The electronic state is 1-A1G.
 Alpha  occ. eigenvalues --   -5.84404  -3.92219  -3.92219  -3.92219  -0.76332
 Alpha  occ. eigenvalues --   -0.76332  -0.76332  -0.76332  -0.76332  -0.29837
 Alpha virt. eigenvalues --    0.02485   0.02485   0.02485   0.03248   0.07890
 Alpha virt. eigenvalues --    0.07890   0.07890   0.17615   0.19088   0.19088
 Alpha virt. eigenvalues --    0.19088   0.19088   0.19088   0.25665   0.25665

 Mulliken charges and spin densities:
               1          2
     1  Zn   0.000000   0.000000
 Sum of Mulliken charges =   0.00000   0.00000

 Dipole moment (field-independent basis, Debye):
    X=              0.0000    Y=              0.0000    Z=              0.0000  Tot=              0.0000
 Quadrupole moment (field-independent basis, Debye-Ang):
   XX=            -15.2589   YY=            -15.2589   ZZ=            -15.2589
   XY=              0.0000   XZ=              0.0000   YZ=             -0.0000

 ROCCSD(T)=(MaxCyc=150, Full)/Gen SCF=(maxcycle=400) Pseudo=Read Integr
 P4SDQ=-226.3059998\CCSD=-226.2760984\CCSD(T)=-226.3057644\RMSD=4.555e-
 Normal termination of Gaussian 16 at Fri Apr 13 19:11:57 2018.
