 Gaussian 16, Revision A.03,
 Gaussian 16:  ES64L-G16RevA.03 25-Dec-2016

 ----------------------------------------------------------------------
 #P ROCCSD(T)=(MaxCyc=150, Full)/Gen SCF=(maxcycle=400) Pseudo=Read Int
 egral(NoXCTest) Pop=Regular MaxDisk=500GB Guess=Read IOp(5/15=2)
 ----------------------------------------------------------------------

 --
 Zn
 --
 Symbolic Z-matrix:
 Charge =  0 Multiplicity = 1

                         Standard orientation:
 ---------------------------------------------------------------------
 Center     Atomic      Atomic             Coordinates (Angstroms)
 Number     Number       Type             X           Y           Z
 ---------------------------------------------------------------------
      1         30           0        0.000000    0.000000    0.000000
 ---------------------------------------------------------------------

 SCF Done:  E(ROHF) =  -225.274150817     A.U. after    8 cycles
 E2 =    -0.1029355046D+01 EUMP2 =    -0.22630350586287D+03
 CCSD(T)
 CCSD(T)= -0.22625139457D+03

 The electronic state is 1-A1G.
 Alpha  occ. eigenvalues --   -5.84409  -3.92228  -3.92228  -3.92228  -0.76331
 Alpha  occ. eigenvalues --   -0.76331  -0.76331  -0.76331  -0.76331  -0.29843
 Alpha virt. eigenvalues --    0.02672   0.02672   0.02672   0.03355   0.08957
 Alpha virt. eigenvalues --    0.08957   0.08957   0.18068   0.26457   0.26457
 Alpha virt. eigenvalues --    0.26457   0.26457   0.26457   0.32257   0.32257

 Mulliken charges and spin densities:
               1          2
     1  Zn  -0.000000   0.000000
 Sum of Mulliken charges =  -0.00000   0.00000

 Dipole moment (field-independent basis, Debye):
    X=              0.0000    Y=              0.0000    Z=              0.0000  Tot=              0.0000
 Quadrupole moment (field-independent basis, Debye-Ang):
   XX=            -15.2593   YY=            -15.2593   ZZ=            -15.2593
   XY=             -0.0000   XZ=             -0.0000   YZ=              0.0000

 ROCCSD(T)=(MaxCyc=150, Full)/Gen SCF=(maxcycle=400) Pseudo=Read Integr
 \MP4SDQ=-226.2539248\CCSD=-226.223631\CCSD(T)=-226.2513946\RMSD=5.844e
 Normal termination of Gaussian 16 at Fri Apr 13 18:44:58 2018.
