 Gaussian 16, Revision A.03,
 Gaussian 16:  ES64L-G16RevA.03 25-Dec-2016

 ----------------------------------------------------------------------
 #P ROCCSD(T)=(MaxCyc=150, Full)/Gen SCF=(maxcycle=400, vshift=200) Pse
 udo=Read Integral(NoXCTest) Pop=Regular MaxDisk=500GB Guess=Read IOp(5
 /15=2)
 ----------------------------------------------------------------------

 ---
 CoH
 ---
 Symbolic Z-matrix:
 Charge =  0 Multiplicity = 3

                         Standard orientation:
 ---------------------------------------------------------------------
 Center     Atomic      Atomic             Coordinates (Angstroms)
 Number     Number       Type             X           Y           Z
 ---------------------------------------------------------------------
      1         27           0        0.000000    0.000000    0.060714
      2          1           0        0.000000    0.000000   -1.639286
 ---------------------------------------------------------------------

 SCF Done:  E(ROHF) =  -145.155691171     A.U. after  119 cycles
 E2 =    -0.8496464587D+00 EUMP2 =    -0.14600533763016D+03
 CCSD(T)
 CCSD(T)= -0.14598906391D+03

 Unable to determine electronic state:  partially filled degenerate orbitals.
 Alpha  occ. eigenvalues --   -4.53915  -2.98814  -2.98814  -2.98768  -0.49367
 Alpha  occ. eigenvalues --   -0.48935  -0.44627  -0.44226  -0.44226  -0.32472
 Alpha virt. eigenvalues --   -0.00367   0.02618   0.02618   0.03470   0.04584
 Alpha virt. eigenvalues --    0.09340   0.09340   0.10130   0.11225   0.11269
 Alpha virt. eigenvalues --    0.11502   0.11502   0.11656   0.18634   0.24447

 Mulliken charges and spin densities:
               1          2
     1  Co   0.378157   1.987679
     2  H   -0.378157   0.012321
 Sum of Mulliken charges =  -0.00000   2.00000

 Dipole moment (field-independent basis, Debye):
    X=              0.0000    Y=              0.0000    Z=              4.7236  Tot=              4.7236
 Quadrupole moment (field-independent basis, Debye-Ang):
   XX=            -13.9982   YY=            -13.9982   ZZ=            -18.8982
   XY=              0.0000   XZ=              0.0000   YZ=              0.0000

 \\#P ROCCSD(T)=(MaxCyc=150, Full)/Gen SCF=(maxcycle=400, vshift=200) P
 \PMP2-0=-146.0053376\MP4SDQ=-145.98207\CCSD=-145.9594568\CCSD(T)=-145.
 Normal termination of Gaussian 16 at Sat Apr 21 22:44:44 2018.
