 Gaussian 16, Revision A.03,
 Gaussian 16:  ES64L-G16RevA.03 25-Dec-2016

 ----------------------------------------------------------------------
 #P ROCCSD(T)=(MaxCyc=150, Full)/Gen SCF=(maxcycle=400, vshift=200) Pse
 udo=Read Integral(NoXCTest) Pop=Regular MaxDisk=500GB Guess=Read IOp(5
 /15=2)
 ----------------------------------------------------------------------

 ---
 CoH
 ---
 Symbolic Z-matrix:
 Charge =  0 Multiplicity = 3

                         Standard orientation:
 ---------------------------------------------------------------------
 Center     Atomic      Atomic             Coordinates (Angstroms)
 Number     Number       Type             X           Y           Z
 ---------------------------------------------------------------------
      1         27           0        0.000000    0.000000    0.060714
      2          1           0        0.000000    0.000000   -1.639286
 ---------------------------------------------------------------------

 SCF Done:  E(ROHF) =  -145.157078843     A.U. after   26 cycles
 E2 =    -0.9110639649D+00 EUMP2 =    -0.14606814280836D+03
 CCSD(T)
 CCSD(T)= -0.14604797379D+03

 Unable to determine electronic state:  partially filled degenerate orbitals.
 Alpha  occ. eigenvalues --   -4.53919  -2.98811  -2.98811  -2.98766  -0.49368
 Alpha  occ. eigenvalues --   -0.48937  -0.44638  -0.44241  -0.44240  -0.32475
 Alpha virt. eigenvalues --   -0.00417   0.02288   0.02288   0.02815   0.03718
 Alpha virt. eigenvalues --    0.06410   0.06590   0.06601   0.06883   0.06883
 Alpha virt. eigenvalues --    0.08144   0.08144   0.08888   0.14183   0.17562

 Mulliken charges and spin densities:
               1          2
     1  Co   0.327283   1.993361
     2  H   -0.327283   0.006639
 Sum of Mulliken charges =  -0.00000   2.00000

 Dipole moment (field-independent basis, Debye):
    X=              0.0000    Y=              0.0000    Z=              4.7183  Tot=              4.7183
 Quadrupole moment (field-independent basis, Debye-Ang):
   XX=            -13.9849   YY=            -13.9849   ZZ=            -18.9062
   XY=              0.0000   XZ=              0.0000   YZ=              0.0000

 \\#P ROCCSD(T)=(MaxCyc=150, Full)/Gen SCF=(maxcycle=400, vshift=200) P
 \PMP2-0=-146.0681428\MP4SDQ=-146.0380643\CCSD=-146.0162319\CCSD(T)=-14
 Normal termination of Gaussian 16 at Sat Apr 28 21:07:30 2018.
