 Gaussian 16, Revision A.03,
 Gaussian 16:  ES64L-G16RevA.03 25-Dec-2016

 ----------------------------------------------------------------------
 #P ROCCSD(T)=(MaxCyc=150, Full)/Gen SCF=(maxcycle=400, vshift=200) Pse
 udo=Read Integral(NoXCTest) Pop=Regular MaxDisk=500GB Guess=Read IOp(5
 /15=2)
 ----------------------------------------------------------------------

 ---
 CoH
 ---
 Symbolic Z-matrix:
 Charge =  0 Multiplicity = 3

                         Standard orientation:
 ---------------------------------------------------------------------
 Center     Atomic      Atomic             Coordinates (Angstroms)
 Number     Number       Type             X           Y           Z
 ---------------------------------------------------------------------
      1         27           0        0.000000    0.000000    0.060714
      2          1           0        0.000000    0.000000   -1.639286
 ---------------------------------------------------------------------

 SCF Done:  E(ROHF) =  -145.156870687     A.U. after   32 cycles
 E2 =    -0.8910895367D+00 EUMP2 =    -0.14604796022392D+03
 CCSD(T)
 CCSD(T)= -0.14603003784D+03

 Unable to determine electronic state:  partially filled degenerate orbitals.
 Alpha  occ. eigenvalues --   -4.53920  -2.98811  -2.98811  -2.98765  -0.49370
 Alpha  occ. eigenvalues --   -0.48939  -0.44633  -0.44235  -0.44235  -0.32474
 Alpha virt. eigenvalues --   -0.00382   0.02366   0.02366   0.03139   0.04301
 Alpha virt. eigenvalues --    0.06983   0.07289   0.07303   0.07556   0.07556
 Alpha virt. eigenvalues --    0.08539   0.08539   0.10207   0.17688   0.19690

 Mulliken charges and spin densities:
               1          2
     1  Co   0.354681   1.995867
     2  H   -0.354681   0.004133
 Sum of Mulliken charges =  -0.00000   2.00000

 Dipole moment (field-independent basis, Debye):
    X=              0.0000    Y=              0.0000    Z=              4.7187  Tot=              4.7187
 Quadrupole moment (field-independent basis, Debye-Ang):
   XX=            -13.9853   YY=            -13.9854   ZZ=            -18.9057
   XY=              0.0000   XZ=              0.0000   YZ=              0.0000

 \\#P ROCCSD(T)=(MaxCyc=150, Full)/Gen SCF=(maxcycle=400, vshift=200) P
 \PMP2-0=-146.0479602\MP4SDQ=-146.0210211\CCSD=-145.9988773\CCSD(T)=-14
 Normal termination of Gaussian 16 at Sat Apr 21 23:28:15 2018.
