 Gaussian 16, Revision A.03,
 Gaussian 16:  ES64L-G16RevA.03 25-Dec-2016

 ----------------------------------------------------------------------
 #P ROCCSD(T)=(maxcyc=150, Full, SaveAmplitudes, ReadAmplitudes)/Gen 5d
  7f SCF=(maxcycles=300) Integral(NoXCTest) MaxDisk=500GB Pop=Regular P
 seudo=Read Guess=Read
 ----------------------------------------------------------------------

 ---
 TiO
 ---
 Symbolic Z-matrix:
 Charge =  0 Multiplicity = 3

                         Standard orientation:
 ---------------------------------------------------------------------
 Center     Atomic      Atomic             Coordinates (Angstroms)
 Number     Number       Type             X           Y           Z
 ---------------------------------------------------------------------
      1         22           0        0.000000    0.000000    0.346667
      2          8           0        0.000000    0.000000   -0.953333
 ---------------------------------------------------------------------

 SCF Done:  E(ROHF) =  -73.2733390137     A.U. after   22 cycles
 E2 =    -0.7661733942D+00 EUMP2 =    -0.74039512407862D+02
 CCSD(T)
 CCSD(T)= -0.74062009721D+02

 Unable to determine electronic state:  an orbital has unidentified symmetry.
 Alpha  occ. eigenvalues --   -2.95316  -1.95834  -1.82246  -1.82246  -1.14568
 Alpha  occ. eigenvalues --   -0.59188  -0.59188  -0.52500  -0.35815  -0.21642
 Alpha virt. eigenvalues --    0.01139   0.01139   0.02114   0.02336   0.03786
 Alpha virt. eigenvalues --    0.03786   0.03806   0.03843   0.03859   0.04637
 Alpha virt. eigenvalues --    0.04637   0.07231   0.10368   0.10657   0.11231

 Mulliken charges and spin densities:
               1          2
     1  Ti   0.854258   1.982783
     2  O   -0.854258   0.017217
 Sum of Mulliken charges =  -0.00000   2.00000

 Dipole moment (field-independent basis, Debye):
    X=              0.0000    Y=              0.0000    Z=              0.6319  Tot=              0.6319
 Quadrupole moment (field-independent basis, Debye-Ang):
   XX=            -22.0127   YY=            -22.0127   ZZ=            -27.0538
   XY=              0.0000   XZ=              0.0000   YZ=              0.0000

 \\#P ROCCSD(T)=(maxcyc=150, Full, SaveAmplitudes, ReadAmplitudes)/Gen
 =-74.0395124\CCSD=-74.0257835\CCSD(T)=-74.0620097\RMSD=2.296e-09\PG=C*
 Normal termination of Gaussian 16 at Sun Mar 11 05:40:28 2018.
