 Gaussian 16, Revision A.03,
 Gaussian 16:  ES64L-G16RevA.03 25-Dec-2016

 ----------------------------------------------------------------------
 #P ROCCSD(T)=(maxcyc=150, Full, SaveAmplitudes, ReadAmplitudes)/Gen 5d
  7f SCF=(maxcycles=300) Integral(NoXCTest) MaxDisk=500GB Pop=Regular P
 seudo=Read Guess=Read
 ----------------------------------------------------------------------

 ---
 CrO
 ---
 Symbolic Z-matrix:
 Charge =  0 Multiplicity = 5

                         Standard orientation:
 ---------------------------------------------------------------------
 Center     Atomic      Atomic             Coordinates (Angstroms)
 Number     Number       Type             X           Y           Z
 ---------------------------------------------------------------------
      1         24           0        0.000000    0.000000    0.375000
      2          8           0        0.000000    0.000000   -1.125000
 ---------------------------------------------------------------------

 SCF Done:  E(ROHF) =  -102.019756167     A.U. after   22 cycles
 E2 =    -0.9258495792D+00 EUMP2 =    -0.10294560574631D+03
 CCSD(T)
 CCSD(T)= -0.10296491219D+03

 Unable to determine electronic state:  an orbital has unidentified symmetry.
 Alpha  occ. eigenvalues --   -3.78111  -2.49133  -2.45073  -2.42394  -1.19928
 Alpha  occ. eigenvalues --   -0.63549  -0.57756  -0.56300  -0.50329  -0.47801
 Alpha  occ. eigenvalues --   -0.39722  -0.30278
 Alpha virt. eigenvalues --    0.00767   0.00984   0.01772   0.02785   0.04257
 Alpha virt. eigenvalues --    0.04459   0.05340   0.05341   0.05491   0.05781
 Alpha virt. eigenvalues --    0.06062   0.06502   0.10606   0.13307   0.13364

 Mulliken charges and spin densities:
               1          2
     1  Cr   1.003217   3.884956
     2  O   -1.003217   0.115044
 Sum of Mulliken charges =  -0.00000   4.00000

 Dipole moment (field-independent basis, Debye):
    X=              0.0000    Y=              0.0000    Z=              4.5372  Tot=              4.5372
 Quadrupole moment (field-independent basis, Debye-Ang):
   XX=            -20.6972   YY=            -19.6080   ZZ=            -24.2411
   XY=              0.0000   XZ=              0.0000   YZ=              0.0000

 \\#P ROCCSD(T)=(maxcyc=150, Full, SaveAmplitudes, ReadAmplitudes)/Gen
 MP2-0=-102.9456057\CCSD=-102.9145062\CCSD(T)=-102.9649122\RMSD=1.242e-
 Normal termination of Gaussian 16 at Tue Mar 13 05:46:30 2018.
