 Gaussian 16, Revision A.03,
 Gaussian 16:  ES64L-G16RevA.03 25-Dec-2016

 ----------------------------------------------------------------------
 #P ROCCSD(T)=(MaxCyc=150, Full)/Gen SCF=(maxcycle=400) Pseudo=Read Int
 egral(NoXCTest) Pop=Regular MaxDisk=500GB Guess=Read IOp(5/15=2)
 ----------------------------------------------------------------------

 ---
 CuH
 ---
 Symbolic Z-matrix:
 Charge =  0 Multiplicity = 1

                         Standard orientation:
 ---------------------------------------------------------------------
 Center     Atomic      Atomic             Coordinates (Angstroms)
 Number     Number       Type             X           Y           Z
 ---------------------------------------------------------------------
      1         29           0        0.000000    0.000000    0.033333
      2          1           0        0.000000    0.000000   -0.966667
 ---------------------------------------------------------------------

 SCF Done:  E(ROHF) =  -196.982403730     A.U. after   12 cycles
 E2 =    -0.1150865520D+01 EUMP2 =    -0.19813326924959D+03
 CCSD(T)
 CCSD(T)= -0.19805036612D+03

 The electronic state is 1-SG.
 Alpha  occ. eigenvalues --   -5.31901  -3.60477  -3.57086  -3.57086  -0.63823
 Alpha  occ. eigenvalues --   -0.57170  -0.57170  -0.54365  -0.54365  -0.32410
 Alpha virt. eigenvalues --    0.00978   0.02652   0.02652   0.02843   0.05816
 Alpha virt. eigenvalues --    0.08704   0.08704   0.09217   0.13154   0.13154
 Alpha virt. eigenvalues --    0.13273   0.14066   0.14066   0.19744   0.23191

 Mulliken charges and spin densities:
               1          2
     1  Cu   0.199114   0.000000
     2  H   -0.199114   0.000000
 Sum of Mulliken charges =  -0.00000   0.00000

 Dipole moment (field-independent basis, Debye):
    X=              0.0000    Y=              0.0000    Z=              2.8504  Tot=              2.8504
 Quadrupole moment (field-independent basis, Debye-Ang):
   XX=            -14.5000   YY=            -14.5000   ZZ=            -14.2658
   XY=              0.0000   XZ=              0.0000   YZ=              0.0000

 P ROCCSD(T)=(MaxCyc=150, Full)/Gen SCF=(maxcycle=400) Pseudo=Read Inte
 -0=-198.1332692\MP4SDQ=-198.0761863\CCSD=-198.0105735\CCSD(T)=-198.050
 Normal termination of Gaussian 16 at Sun Apr 22 23:40:25 2018.
