 Gaussian 16, Revision A.03,
 Gaussian 16:  ES64L-G16RevA.03 25-Dec-2016

 ----------------------------------------------------------------------
 #P ROCCSD(T)=(MaxCyc=150, Full)/Gen SCF=(maxcycle=400) Pseudo=Read Int
 egral(NoXCTest) Pop=Regular MaxDisk=500GB Guess=Read IOp(5/15=2)
 ----------------------------------------------------------------------

 ---
 CuH
 ---
 Symbolic Z-matrix:
 Charge =  0 Multiplicity = 1

                         Standard orientation:
 ---------------------------------------------------------------------
 Center     Atomic      Atomic             Coordinates (Angstroms)
 Number     Number       Type             X           Y           Z
 ---------------------------------------------------------------------
      1         29           0        0.000000    0.000000    0.033333
      2          1           0        0.000000    0.000000   -0.966667
 ---------------------------------------------------------------------

 SCF Done:  E(ROHF) =  -196.967392613     A.U. after   11 cycles
 E2 =    -0.1099290073D+01 EUMP2 =    -0.19806668268564D+03
 CCSD(T)
 CCSD(T)= -0.19798514311D+03

 The electronic state is 1-SG.
 Alpha  occ. eigenvalues --   -5.32142  -3.60654  -3.57257  -3.57257  -0.63816
 Alpha  occ. eigenvalues --   -0.57138  -0.57138  -0.54332  -0.54332  -0.32421
 Alpha virt. eigenvalues --    0.01041   0.02921   0.02921   0.03119   0.06304
 Alpha virt. eigenvalues --    0.09950   0.09950   0.10101   0.17333   0.18899
 Alpha virt. eigenvalues --    0.18899   0.20603   0.20603   0.22211   0.26109

 Mulliken charges and spin densities:
               1          2
     1  Cu   0.245039   0.000000
     2  H   -0.245039   0.000000
 Sum of Mulliken charges =   0.00000   0.00000

 Dipole moment (field-independent basis, Debye):
    X=              0.0000    Y=              0.0000    Z=              2.8535  Tot=              2.8535
 Quadrupole moment (field-independent basis, Debye-Ang):
   XX=            -14.5084   YY=            -14.5084   ZZ=            -14.2521
   XY=              0.0000   XZ=              0.0000   YZ=              0.0000

 P ROCCSD(T)=(MaxCyc=150, Full)/Gen SCF=(maxcycle=400) Pseudo=Read Inte
 -0=-198.0666827\MP4SDQ=-198.0137539\CCSD=-197.9472459\CCSD(T)=-197.985
 Normal termination of Gaussian 16 at Sun Apr 22 23:23:09 2018.
