 Gaussian 16, Revision A.03,
 Gaussian 16:  ES64L-G16RevA.03 25-Dec-2016

 ----------------------------------------------------------------------
 #P ROCCSD(T)=(MaxCyc=150, Full)/Gen SCF=(maxcycle=400) Pseudo=Read Int
 egral(NoXCTest) Pop=Regular MaxDisk=500GB Guess=Read IOp(5/15=2)
 ----------------------------------------------------------------------

 ---
 CuH
 ---
 Symbolic Z-matrix:
 Charge =  0 Multiplicity = 1

                         Standard orientation:
 ---------------------------------------------------------------------
 Center     Atomic      Atomic             Coordinates (Angstroms)
 Number     Number       Type             X           Y           Z
 ---------------------------------------------------------------------
      1         29           0        0.000000    0.000000    0.033333
      2          1           0        0.000000    0.000000   -0.966667
 ---------------------------------------------------------------------

 SCF Done:  E(ROHF) =  -196.983882277     A.U. after   10 cycles
 E2 =    -0.1175792029D+01 EUMP2 =    -0.19815967430604D+03
 CCSD(T)
 CCSD(T)= -0.19807455285D+03

 The electronic state is 1-SG.
 Alpha  occ. eigenvalues --   -5.31905  -3.60465  -3.57074  -3.57074  -0.63823
 Alpha  occ. eigenvalues --   -0.57174  -0.57174  -0.54367  -0.54367  -0.32410
 Alpha virt. eigenvalues --    0.00847   0.02563   0.02563   0.02565   0.04946
 Alpha virt. eigenvalues --    0.07890   0.08337   0.08337   0.11741   0.11741
 Alpha virt. eigenvalues --    0.11933   0.12628   0.12628   0.14788   0.18934

 Mulliken charges and spin densities:
               1          2
     1  Cu   0.287065   0.000000
     2  H   -0.287065   0.000000
 Sum of Mulliken charges =   0.00000   0.00000

 Dipole moment (field-independent basis, Debye):
    X=              0.0000    Y=              0.0000    Z=              2.8491  Tot=              2.8491
 Quadrupole moment (field-independent basis, Debye-Ang):
   XX=            -14.4985   YY=            -14.4985   ZZ=            -14.2668
   XY=              0.0000   XZ=              0.0000   YZ=              0.0000

 P ROCCSD(T)=(MaxCyc=150, Full)/Gen SCF=(maxcycle=400) Pseudo=Read Inte
 -0=-198.1596743\MP4SDQ=-198.0991839\CCSD=-198.0340498\CCSD(T)=-198.074
 Normal termination of Gaussian 16 at Sun May  6 11:40:13 2018.
