 Gaussian 16, Revision A.03,
 Gaussian 16:  ES64L-G16RevA.03 25-Dec-2016

 ----------------------------------------------------------------------
 #P ROCCSD(T)=(MaxCyc=150, Full)/Gen SCF=(maxcycle=400) Pseudo=Read Int
 egral(NoXCTest) Pop=Regular MaxDisk=500GB Guess=Read IOp(5/15=2)
 ----------------------------------------------------------------------

 ---
 ZnO
 ---
 Symbolic Z-matrix:
 Charge =  0 Multiplicity = 1

                         Standard orientation:
 ---------------------------------------------------------------------
 Center     Atomic      Atomic             Coordinates (Angstroms)
 Number     Number       Type             X           Y           Z
 ---------------------------------------------------------------------
      1         30           0        0.000000    0.000000    0.336842
      2          8           0        0.000000    0.000000   -1.263158
 ---------------------------------------------------------------------

 SCF Done:  E(ROHF) =  -241.243913406     A.U. after    1 cycles
 E2 =    -0.1326282582D+01 EUMP2 =    -0.24257019598880D+03
 CCSD(T)
 CCSD(T)= -0.24251059267D+03

 The electronic state is 1-SG.
 Alpha  occ. eigenvalues --   -5.91092  -4.02954  -4.02602  -4.02602  -1.18007
 Alpha  occ. eigenvalues --   -0.83228  -0.83228  -0.82251  -0.82251  -0.79942
 Alpha  occ. eigenvalues --   -0.39462  -0.39462  -0.38555
 Alpha virt. eigenvalues --   -0.04807   0.02650   0.02702   0.02702   0.04700
 Alpha virt. eigenvalues --    0.09086   0.09086   0.13386   0.17649   0.22108
 Alpha virt. eigenvalues --    0.23816   0.23816   0.24708   0.24708   0.29966

 Mulliken charges and spin densities:
               1          2
     1  Zn   1.134724   0.000000
     2  O   -1.134724   0.000000
 Sum of Mulliken charges =   0.00000   0.00000

 Dipole moment (field-independent basis, Debye):
    X=              0.0000    Y=              0.0000    Z=              7.2576  Tot=              7.2576
 Quadrupole moment (field-independent basis, Debye-Ang):
   XX=            -18.0184   YY=            -18.0184   ZZ=            -21.2876
   XY=              0.0000   XZ=              0.0000   YZ=              0.0000

 P ROCCSD(T)=(MaxCyc=150, Full)/Gen SCF=(maxcycle=400) Pseudo=Read Inte
 -0=-242.570196\MP4SDQ=-242.5074773\CCSD=-242.4623439\CCSD(T)=-242.5105
 Normal termination of Gaussian 16 at Tue Mar 27 11:53:07 2018.
