 Gaussian 16, Revision A.03,
 Gaussian 16:  ES64L-G16RevA.03 25-Dec-2016

 ----------------------------------------------------------------------
 #P ROCCSD(T)=(MaxCyc=150, Full)/Gen SCF=(maxcycle=400) Pseudo=Read Int
 egral(NoXCTest) Pop=Regular MaxDisk=500GB Guess=Read IOp(5/15=2)
 ----------------------------------------------------------------------

 ---
 ZnO
 ---
 Symbolic Z-matrix:
 Charge =  0 Multiplicity = 1

                         Standard orientation:
 ---------------------------------------------------------------------
 Center     Atomic      Atomic             Coordinates (Angstroms)
 Number     Number       Type             X           Y           Z
 ---------------------------------------------------------------------
      1         30           0        0.000000    0.000000    0.336842
      2          8           0        0.000000    0.000000   -1.263158
 ---------------------------------------------------------------------

 SCF Done:  E(ROHF) =  -241.246709136     A.U. after   11 cycles
 E2 =    -0.1394732004D+01 EUMP2 =    -0.24264144114013D+03
 CCSD(T)
 CCSD(T)= -0.24257935578D+03

 The electronic state is 1-SG.
 Alpha  occ. eigenvalues --   -5.91077  -4.02928  -4.02584  -4.02584  -1.17962
 Alpha  occ. eigenvalues --   -0.83215  -0.83215  -0.82243  -0.82243  -0.79923
 Alpha  occ. eigenvalues --   -0.39470  -0.39470  -0.38538
 Alpha virt. eigenvalues --   -0.04794   0.02425   0.02446   0.02446   0.04217
 Alpha virt. eigenvalues --    0.07903   0.07903   0.11999   0.16478   0.17741
 Alpha virt. eigenvalues --    0.17809   0.17809   0.20637   0.20637   0.23099

 Mulliken charges and spin densities:
               1          2
     1  Zn   1.019020   0.000000
     2  O   -1.019020   0.000000
 Sum of Mulliken charges =  -0.00000   0.00000

 Dipole moment (field-independent basis, Debye):
    X=              0.0000    Y=              0.0000    Z=              7.2441  Tot=              7.2441
 Quadrupole moment (field-independent basis, Debye-Ang):
   XX=            -18.0055   YY=            -18.0055   ZZ=            -21.2854
   XY=              0.0000   XZ=              0.0000   YZ=              0.0000

 P ROCCSD(T)=(MaxCyc=150, Full)/Gen SCF=(maxcycle=400) Pseudo=Read Inte
 2-0=-242.6414411\MP4SDQ=-242.5726785\CCSD=-242.5285248\CCSD(T)=-242.57
 Normal termination of Gaussian 16 at Tue Mar 27 14:17:57 2018.
