 Gaussian 16, Revision A.03,
 Gaussian 16:  ES64L-G16RevA.03 25-Dec-2016

 ----------------------------------------------------------------------
 #P ROCCSD(T)=(MaxCyc=150, Full)/Gen SCF=(maxcycle=400) Pseudo=Read Int
 egral(NoXCTest) Pop=Regular MaxDisk=500GB Guess=Read IOp(5/15=2)
 ----------------------------------------------------------------------

 ---
 CoO
 ---
 Symbolic Z-matrix:
 Charge =  0 Multiplicity = 4

                         Standard orientation:
 ---------------------------------------------------------------------
 Center     Atomic      Atomic             Coordinates (Angstroms)
 Number     Number       Type             X           Y           Z
 ---------------------------------------------------------------------
      1         27           0        0.000000    0.000000    0.365714
      2          8           0        0.000000    0.000000   -1.234286
 ---------------------------------------------------------------------

 SCF Done:  E(ROHF) =  -160.657369543     A.U. after   21 cycles
 E2 =    -0.1129125919D+01 EUMP2 =    -0.16178649546174D+03
 CCSD(T)
 CCSD(T)= -0.16180671280D+03

 Unable to determine electronic state:  partially filled degenerate orbitals.
 Alpha  occ. eigenvalues --   -4.88845  -3.24538  -3.24097  -3.24097  -1.18062
 Alpha  occ. eigenvalues --   -0.77045  -0.77045  -0.75764  -0.70707  -0.67834
 Alpha  occ. eigenvalues --   -0.39136  -0.39136  -0.36309
 Alpha virt. eigenvalues --   -0.04346   0.01903   0.01903   0.02148   0.03747
 Alpha virt. eigenvalues --    0.06831   0.06831   0.07080   0.07134   0.07143
 Alpha virt. eigenvalues --    0.08489   0.08489   0.12712   0.14522   0.21092

 Mulliken charges and spin densities:
               1          2
     1  Co   0.998331   2.903388
     2  O   -0.998331   0.096612
 Sum of Mulliken charges =  -0.00000   3.00000

 Dipole moment (field-independent basis, Debye):
    X=              0.0000    Y=              0.0000    Z=              7.5241  Tot=              7.5241
 Quadrupole moment (field-independent basis, Debye-Ang):
   XX=            -18.8214   YY=            -18.8214   ZZ=            -21.3946
   XY=              0.0000   XZ=              0.0000   YZ=              0.0000

 \\#P ROCCSD(T)=(MaxCyc=150, Full)/Gen SCF=(maxcycle=400) Pseudo=Read I
 .7864955\MP4SDQ=-161.7581526\CCSD=-161.7494096\CCSD(T)=-161.8067128\RM
 Normal termination of Gaussian 16 at Sat Mar 31 20:15:06 2018.
