 Gaussian 16, Revision A.03,
 Gaussian 16:  ES64L-G16RevA.03 25-Dec-2016

 ----------------------------------------------------------------------
 #P ROCCSD(T)=(MaxCyc=150, Full)/Gen SCF=(maxcycle=400) Pseudo=Read Int
 egral(NoXCTest) Pop=Regular MaxDisk=500GB Guess=Read IOp(5/15=2)
 ----------------------------------------------------------------------

 ---
 CoO
 ---
 Symbolic Z-matrix:
 Charge =  0 Multiplicity = 4

                         Standard orientation:
 ---------------------------------------------------------------------
 Center     Atomic      Atomic             Coordinates (Angstroms)
 Number     Number       Type             X           Y           Z
 ---------------------------------------------------------------------
      1         27           0        0.000000    0.000000    0.365714
      2          8           0        0.000000    0.000000   -1.234286
 ---------------------------------------------------------------------

 SCF Done:  E(ROHF) =  -160.653756253     A.U. after   24 cycles
 E2 =    -0.1077405989D+01 EUMP2 =    -0.16173116224220D+03
 CCSD(T)
 CCSD(T)= -0.16175403785D+03

 Unable to determine electronic state:  partially filled degenerate orbitals.
 Alpha  occ. eigenvalues --   -4.88857  -3.24561  -3.24117  -3.24117  -1.18120
 Alpha  occ. eigenvalues --   -0.77052  -0.77052  -0.75771  -0.70712  -0.67847
 Alpha  occ. eigenvalues --   -0.39127  -0.39127  -0.36326
 Alpha virt. eigenvalues --   -0.04354   0.02213   0.02213   0.02404   0.04157
 Alpha virt. eigenvalues --    0.07975   0.07975   0.09893   0.10844   0.10872
 Alpha virt. eigenvalues --    0.11740   0.11740   0.14930   0.15526   0.26110

 Mulliken charges and spin densities:
               1          2
     1  Co   1.052297   2.902664
     2  O   -1.052297   0.097336
 Sum of Mulliken charges =  -0.00000   3.00000

 Dipole moment (field-independent basis, Debye):
    X=              0.0000    Y=              0.0000    Z=              7.5349  Tot=              7.5349
 Quadrupole moment (field-independent basis, Debye-Ang):
   XX=            -18.8250   YY=            -18.8250   ZZ=            -21.4132
   XY=              0.0000   XZ=              0.0000   YZ=              0.0000

 \\#P ROCCSD(T)=(MaxCyc=150, Full)/Gen SCF=(maxcycle=400) Pseudo=Read I
 .7311622\MP4SDQ=-161.7085312\CCSD=-161.6989991\CCSD(T)=-161.7540379\RM
 Normal termination of Gaussian 16 at Sat Mar 31 17:56:48 2018.
