 Gaussian 16, Revision A.03,
 Gaussian 16:  ES64L-G16RevA.03 25-Dec-2016

 ----------------------------------------------------------------------
 #P ROCCSD(T)=(maxcyc=150, Full, SaveAmplitudes, ReadAmplitudes)/Gen 5d
  7f SCF=(maxcycles=300) Integral(NoXCTest) MaxDisk=500GB Pop=Regular P
 seudo=Read Guess=Read IOp(5/15=2)
 ----------------------------------------------------------------------

 ---
 MnH
 ---
 Symbolic Z-matrix:
 Charge =  0 Multiplicity = 7

                         Standard orientation:
 ---------------------------------------------------------------------
 Center     Atomic      Atomic             Coordinates (Angstroms)
 Number     Number       Type             X           Y           Z
 ---------------------------------------------------------------------
      1         25           0        0.000000    0.000000    0.046154
      2          1           0        0.000000    0.000000   -1.153846
 ---------------------------------------------------------------------

 SCF Done:  E(ROHF) =  -103.953513267     A.U. after   27 cycles
 E2 =    -0.5936955147D+00 EUMP2 =    -0.10454720878158D+03
 CCSD(T)
 CCSD(T)= -0.10456692148D+03

 The electronic state is 7-SG.
 Alpha  occ. eigenvalues --   -4.23724  -2.79663  -2.78734  -2.78734  -0.68201
 Alpha  occ. eigenvalues --   -0.63694  -0.63694  -0.63564  -0.63564  -0.41127
 Alpha  occ. eigenvalues --   -0.23622
 Alpha virt. eigenvalues --    0.01358   0.01358   0.02086   0.03329   0.05826
 Alpha virt. eigenvalues --    0.05826   0.08513   0.08513   0.08652   0.08922
 Alpha virt. eigenvalues --    0.08923   0.08923   0.14200   0.22022   0.22662

 Mulliken charges and spin densities:
               1          2
     1  Mn   0.492393   5.933706
     2  H   -0.492393   0.066294
 Sum of Mulliken charges =   0.00000   6.00000

 Dipole moment (field-independent basis, Debye):
    X=              0.0000    Y=              0.0000    Z=             -0.3641  Tot=              0.3641
 Quadrupole moment (field-independent basis, Debye-Ang):
   XX=            -15.9937   YY=            -15.9937   ZZ=            -25.3911
   XY=              0.0000   XZ=              0.0000   YZ=              0.0000

 \\#P ROCCSD(T)=(maxcyc=150, Full, SaveAmplitudes, ReadAmplitudes)/Gen
 5487112\CCSD=-104.5499255\CCSD(T)=-104.5669215\RMSD=7.006e-09\PG=C*V [
 Normal termination of Gaussian 16 at Sun Feb 25 22:32:15 2018.
