 Gaussian 16, Revision A.03,
 Gaussian 16:  ES64L-G16RevA.03 25-Dec-2016

 ----------------------------------------------------------------------
 #P ROCCSD(T)=(maxcyc=150, Window=(6,0), SaveAmplitudes, ReadAmplitudes
 )/Gen 5d 7f SCF=(maxcycles=300) Integral(NoXCTest, DKHSO) MaxDisk=500G
 B Pop=Regular Guess=Read
 ----------------------------------------------------------------------

 ---
 CrH
 ---
 Symbolic Z-matrix:
 Charge =  0 Multiplicity = 6

                         Standard orientation:
 ---------------------------------------------------------------------
 Center     Atomic      Atomic             Coordinates (Angstroms)
 Number     Number       Type             X           Y           Z
 ---------------------------------------------------------------------
      1         24           0        0.000000    0.000000    0.072000
      2          1           0        0.000000    0.000000   -1.728000
 ---------------------------------------------------------------------

 SCF Done:  E(ROHF) =  -1050.20440670     A.U. after   22 cycles
 E2 =    -0.5358680966D+00 EUMP2 =    -0.10507402747938D+04
 CCSD(T)
 CCSD(T)= -0.10507840901D+04

 The electronic state is 6-SG.
 Alpha  occ. eigenvalues -- -222.21497 -26.80804 -22.44207 -22.44207 -22.44190
 Alpha  occ. eigenvalues --   -3.68049  -2.43508  -2.43508  -2.39322  -0.55632
 Alpha  occ. eigenvalues --   -0.55632  -0.52346  -0.52346  -0.39725  -0.26259
 Alpha virt. eigenvalues --    0.01161   0.01161   0.01957   0.02422   0.04594
 Alpha virt. eigenvalues --    0.04933   0.04933   0.05313   0.05313   0.05656
 Alpha virt. eigenvalues --    0.05656   0.06816   0.09601   0.12382   0.16689

 Mulliken charges and spin densities:
               1          2
     1  Cr   0.321808   4.979193
     2  H   -0.321808   0.020807
 Sum of Mulliken charges =  -0.00000   5.00000

 Dipole moment (field-independent basis, Debye):
    X=             -0.0000    Y=              0.0000    Z=              2.3709  Tot=              2.3709
 Quadrupole moment (field-independent basis, Debye-Ang):
   XX=            -17.3937   YY=            -17.3937   ZZ=            -25.4867
   XY=              0.0000   XZ=             -0.0000   YZ=             -0.0000

 1\1\GINC-C505-052\SP\ROCCSD(T)-RW\Gen\Cr1H1(6)\AANNABE\26-Feb-2018\0\\
 #P ROCCSD(T)=(maxcyc=150, Window=(6,0), SaveAmplitudes, ReadAmplitudes
 )/Gen 5d 7f SCF=(maxcycles=300) Integral(NoXCTest, DKHSO) MaxDisk=500G
 B Pop=Regular Guess=Read\\CrH\\0,6\Cr,0,0.,0.,0.\H,0,0.,0.,1.8\\Versio
 n=ES64L-G16RevA.03\State=6-SG\HF=-1050.2044067\MP2=-1050.7402748\PUHF=
 -1050.2044067\PMP2-0=-1050.7402748\CCSD=-1050.7691402\CCSD(T)=-1050.78
 40901\RMSD=4.135e-09\PG=C*V [C*(H1Cr1)]\\@

 Normal termination of Gaussian 16 at Mon Feb 26 03:08:45 2018.
