 Gaussian 16, Revision A.03,
 Gaussian 16:  ES64L-G16RevA.03 25-Dec-2016

 ----------------------------------------------------------------------
 #P ROCCSD(T)=(maxcyc=150, Full, SaveAmplitudes, ReadAmplitudes)/Gen 5d
  7f SCF=(maxcycles=300) Integral(NoXCTest, DKHSO) MaxDisk=500GB Pop=Re
 gular Guess=Read
 ----------------------------------------------------------------------

 ---
 TiO
 ---
 Symbolic Z-matrix:
 Charge =  0 Multiplicity = 3

                         Standard orientation:
 ---------------------------------------------------------------------
 Center     Atomic      Atomic             Coordinates (Angstroms)
 Number     Number       Type             X           Y           Z
 ---------------------------------------------------------------------
      1         22           0        0.000000    0.000000    0.373333
      2          8           0        0.000000    0.000000   -1.026667
 ---------------------------------------------------------------------

 SCF Done:  E(ROHF) =  -927.664976478     A.U. after   22 cycles
 E2 =    -0.1201955025D+01 EUMP2 =    -0.92886693150287D+03
 CCSD(T)
 CCSD(T)= -0.92888130474D+03

 Unable to determine electronic state:  an orbital has unidentified symmetry.
 Alpha  occ. eigenvalues -- -184.37465 -21.63600 -20.53710 -17.80268 -17.80268
 Alpha  occ. eigenvalues --  -17.80189  -2.93323  -1.90856  -1.83579  -1.83579
 Alpha  occ. eigenvalues --   -1.14984  -0.53499  -0.53499  -0.50367  -0.38620
 Alpha  occ. eigenvalues --   -0.23347
 Alpha virt. eigenvalues --    0.00964   0.00964   0.02017   0.02303   0.03776
 Alpha virt. eigenvalues --    0.03832   0.03858   0.03858   0.03954   0.04402
 Alpha virt. eigenvalues --    0.04402   0.06772   0.10306   0.10459   0.11391

 Mulliken charges and spin densities:
               1          2
     1  Ti   0.924191   1.969819
     2  O   -0.924191   0.030181
 Sum of Mulliken charges =  -0.00000   2.00000

 Dipole moment (field-independent basis, Debye):
    X=              0.0000    Y=              0.0000    Z=              1.9319  Tot=              1.9319
 Quadrupole moment (field-independent basis, Debye-Ang):
   XX=            -22.1163   YY=            -22.1163   ZZ=            -28.1578
   XY=              0.0000   XZ=              0.0000   YZ=              0.0000

 \\#P ROCCSD(T)=(maxcyc=150, Full, SaveAmplitudes, ReadAmplitudes)/Gen
 =-928.8669315\CCSD=-928.8407641\CCSD(T)=-928.8813047\RMSD=1.150e-10\PG
 Normal termination of Gaussian 16 at Wed Mar  7 01:00:40 2018.
