 Gaussian 16, Revision A.03,
 Gaussian 16:  ES64L-G16RevA.03 25-Dec-2016

 ----------------------------------------------------------------------
 #P ROCCSD(T)=(maxcyc=150, Full)/Gen 5d 7f SCF=(maxcycles=300) Integral
 (NoXCTest) MaxDisk=500GB Pop=Regular Pseudo=Read IOp(5/15=2) Guess=Rea
 d
 ----------------------------------------------------------------------

 ---
 ScH
 ---
 Symbolic Z-matrix:
 Charge =  0 Multiplicity = 1

                         Standard orientation:
 ---------------------------------------------------------------------
 Center     Atomic      Atomic             Coordinates (Angstroms)
 Number     Number       Type             X           Y           Z
 ---------------------------------------------------------------------
      1         21           0        0.000000    0.000000    0.095455
      2          1           0        0.000000    0.000000   -2.004545
 ---------------------------------------------------------------------

 SCF Done:  E(ROHF) =  -46.7773068606     A.U. after    9 cycles
 E2 =    -0.4298313525D+00 EUMP2 =    -0.47207138213058D+02
 CCSD(T)
 CCSD(T)= -0.47252274062D+02

 The electronic state is 1-SG.
 Alpha  occ. eigenvalues --   -2.78194  -1.68566  -1.68566  -1.68340  -0.36983
 Alpha  occ. eigenvalues --   -0.24280
 Alpha virt. eigenvalues --    0.00876   0.00876   0.01153   0.01824   0.02560
 Alpha virt. eigenvalues --    0.02560   0.02681   0.02681   0.02750   0.03497
 Alpha virt. eigenvalues --    0.03737   0.03737   0.06109   0.06109   0.06899

 Mulliken charges and spin densities:
               1          2
     1  Sc   0.357959   0.000000
     2  H   -0.357959   0.000000
 Sum of Mulliken charges =  -0.00000   0.00000

 Dipole moment (field-independent basis, Debye):
    X=              0.0000    Y=              0.0000    Z=              2.4763  Tot=              2.4763
 Quadrupole moment (field-independent basis, Debye-Ang):
   XX=            -22.9058   YY=            -22.9058   ZZ=            -29.4018
   XY=              0.0000   XZ=              0.0000   YZ=              0.0000

 P ROCCSD(T)=(maxcyc=150, Full)/Gen 5d 7f SCF=(maxcycles=300) Integral(
 PMP2-0=-47.2071382\MP4SDQ=-47.230757\CCSD=-47.2315393\CCSD(T)=-47.2522
 Normal termination of Gaussian 16 at Wed Feb 14 11:33:02 2018.
