 Gaussian 16, Revision A.03,
 Gaussian 16:  ES64L-G16RevA.03 25-Dec-2016

 ----------------------------------------------------------------------
 #P ROCCSD(T)=(maxcyc=150, Full)/Gen 5d 7f SCF=(maxcycles=300, NoVarAcc
 , VShift=200) MaxDisk=100GB Pop=Regular Pseudo=Read Guess=Read
 ----------------------------------------------------------------------

 --
 Ti
 --
 Symbolic Z-matrix:
 Charge =  0 Multiplicity = 3

                         Standard orientation:
 ---------------------------------------------------------------------
 Center     Atomic      Atomic             Coordinates (Angstroms)
 Number     Number       Type             X           Y           Z
 ---------------------------------------------------------------------
      1         22           0        0.000000    0.000000    0.000000
 ---------------------------------------------------------------------

 SCF Done:  E(ROHF) =  -57.5215278769     A.U. after   19 cycles
 E2 =    -0.4295519520D+00 EUMP2 =    -0.57951079828878D+02
 CCSD(T)
 CCSD(T)= -0.57986643834D+02

 Unable to determine electronic state:  an orbital has unidentified symmetry.
 Alpha  occ. eigenvalues --   -2.98756  -1.89617  -1.89617  -1.89617  -0.43844
 Alpha  occ. eigenvalues --   -0.43844  -0.23001
 Alpha virt. eigenvalues --    0.01375   0.01375   0.01375   0.02239   0.03897
 Alpha virt. eigenvalues --    0.03897   0.03897   0.03945   0.03945   0.04814
 Alpha virt. eigenvalues --    0.04814   0.04814   0.10274   0.10274   0.10274

 Mulliken charges and spin densities:
               1          2
     1  Ti  -0.000000   2.000000
 Sum of Mulliken charges =  -0.00000   2.00000

 Dipole moment (field-independent basis, Debye):
    X=              0.0000    Y=              0.0000    Z=             -0.0000  Tot=              0.0000
 Quadrupole moment (field-independent basis, Debye-Ang):
   XX=            -21.9948   YY=            -21.9948   ZZ=            -21.9948
   XY=             -0.0000   XZ=              0.0000   YZ=             -0.0000

 1\1\GINC-C465-021\SP\ROCCSD(T)-Full\Gen\Ti1(3)\AANNABE\13-Mar-2018\0\\
 #P ROCCSD(T)=(maxcyc=150, Full)/Gen 5d 7f SCF=(maxcycles=300, NoVarAcc
 , VShift=200) MaxDisk=100GB Pop=Regular Pseudo=Read Guess=Read\\Ti\\0,
 3\Ti,0,0.,0.,0.\\Version=ES64L-G16RevA.03\HF=-57.5215279\MP2=-57.95107
 98\MP3=-57.9702289\PUHF=-57.5215279\PMP2-0=-57.9510798\MP4SDQ=-57.9701
 363\CCSD=-57.9704972\CCSD(T)=-57.9866438\RMSD=7.385e-09\PG=OH [O(Ti1)]
 \\@

 Normal termination of Gaussian 16 at Tue Mar 13 12:42:38 2018.
