 Gaussian 16, Revision A.03,
 Gaussian 16:  ES64L-G16RevA.03 25-Dec-2016

 ----------------------------------------------------------------------
 #P ROCCSD(T)=(maxcyc=150, Full, SaveAmplitudes, ReadAmplitudes)/Gen 5d
  7f SCF=(maxcycles=300, VShift=400) Integral(NoXCTest) MaxDisk=500GB P
 op=Full Pseudo=Read Guess=Read IOp(5/15=2)
 ----------------------------------------------------------------------

 ---
 CrO
 ---
 Symbolic Z-matrix:
 Charge =  0 Multiplicity = 5

                         Standard orientation:
 ---------------------------------------------------------------------
 Center     Atomic      Atomic             Coordinates (Angstroms)
 Number     Number       Type             X           Y           Z
 ---------------------------------------------------------------------
      1         24           0        0.000000    0.000000    0.300000
      2          8           0        0.000000    0.000000   -0.900000
 ---------------------------------------------------------------------

 SCF Done:  E(ROHF) =  -101.271414710     A.U. after   67 cycles
 E2 =    -0.8829603751D+00 EUMP2 =    -0.10215437508489D+03
 CCSD(T)
 CCSD(T)= -0.10216067634D+03

 Unable to determine electronic state:  an orbital has unidentified symmetry.
 Alpha  occ. eigenvalues --   -3.73783  -2.48577  -2.43609  -2.39841  -1.26407
 Alpha  occ. eigenvalues --   -0.75026  -0.68940  -0.65490  -0.50358  -0.50268
 Alpha  occ. eigenvalues --   -0.30207  -0.26340
 Alpha virt. eigenvalues --    0.01479   0.02451   0.02790   0.02808   0.05465
 Alpha virt. eigenvalues --    0.07044   0.07666   0.07744   0.07796   0.07799
 Alpha virt. eigenvalues --    0.09648   0.09993   0.12199   0.17921   0.20824

 Mulliken charges and spin densities:
               1          2
     1  Cr   0.828842   3.722038
     2  O   -0.828842   0.277962
 Sum of Mulliken charges =  -0.00000   4.00000

 Dipole moment (field-independent basis, Debye):
    X=              0.0000    Y=              0.0000    Z=              0.2867  Tot=              0.2867
 Quadrupole moment (field-independent basis, Debye-Ang):
   XX=            -22.8173   YY=            -19.9811   ZZ=            -22.8235
   XY=              0.0000   XZ=              0.0000   YZ=              0.0000

 \\#P ROCCSD(T)=(maxcyc=150, Full, SaveAmplitudes, ReadAmplitudes)/Gen
 61641\CCSD=-102.1216895\CCSD(T)=-102.1606763\RMSD=9.417e-09\PG=C*V [C*
 Normal termination of Gaussian 16 at Thu Apr  5 19:44:55 2018.
