 Gaussian 16, Revision A.03,
 Gaussian 16:  ES64L-G16RevA.03 25-Dec-2016

 ----------------------------------------------------------------------
 #P ROCCSD(T)=(maxcyc=150, Full, SaveAmplitudes, ReadAmplitudes)/Gen 5d
  7f SCF=(maxcycles=300) Integral(NoXCTest) MaxDisk=500GB Pop=Regular P
 seudo=Read Guess=Read IOp(5/15=2)
 ----------------------------------------------------------------------

 ---
 CrH
 ---
 Symbolic Z-matrix:
 Charge =  0 Multiplicity = 6

                         Standard orientation:
 ---------------------------------------------------------------------
 Center     Atomic      Atomic             Coordinates (Angstroms)
 Number     Number       Type             X           Y           Z
 ---------------------------------------------------------------------
      1         24           0        0.000000    0.000000    0.080000
      2          1           0        0.000000    0.000000   -1.920000
 ---------------------------------------------------------------------

 SCF Done:  E(ROHF) =  -86.8680053960     A.U. after   23 cycles
 E2 =    -0.5362277268D+00 EUMP2 =    -0.87404233122820D+02
 CCSD(T)
 CCSD(T)= -0.87456488141D+02

 The electronic state is 6-SG.
 Alpha  occ. eigenvalues --   -3.70558  -2.46990  -2.46990  -2.41896  -0.57808
 Alpha  occ. eigenvalues --   -0.57808  -0.54219  -0.54219  -0.37942  -0.26859
 Alpha virt. eigenvalues --    0.00978   0.00978   0.02257   0.02653   0.05179
 Alpha virt. eigenvalues --    0.05179   0.05422   0.07483   0.07483   0.07971
 Alpha virt. eigenvalues --    0.07971   0.09136   0.10494   0.16721   0.20291

 Mulliken charges and spin densities:
               1          2
     1  Cr   0.365374   4.977776
     2  H   -0.365374   0.022224
 Sum of Mulliken charges =  -0.00000   5.00000

 Dipole moment (field-independent basis, Debye):
    X=              0.0000    Y=              0.0000    Z=              2.8565  Tot=              2.8565
 Quadrupole moment (field-independent basis, Debye-Ang):
   XX=            -17.1237   YY=            -17.1237   ZZ=            -27.0128
   XY=              0.0000   XZ=              0.0000   YZ=              0.0000

 \\#P ROCCSD(T)=(maxcyc=150, Full, SaveAmplitudes, ReadAmplitudes)/Gen
 6\CCSD=-87.4406676\CCSD(T)=-87.4564881\RMSD=9.822e-09\PG=C*V [C*(H1Cr1
 Normal termination of Gaussian 16 at Mon Feb 26 15:44:20 2018.
