 Gaussian 16, Revision A.03,
 Gaussian 16:  ES64L-G16RevA.03 25-Dec-2016

 ----------------------------------------------------------------------
 #P ROCCSD(T)=(maxcyc=150, Window=(6,0), SaveAmplitudes, ReadAmplitudes
 )/Gen 5d 7f SCF=(maxcycles=300) Integral(NoXCTest, DKHSO) MaxDisk=500G
 B Pop=Regular Guess=Read IOp(5/15=2)
 ----------------------------------------------------------------------

 ---
 MnH
 ---
 Symbolic Z-matrix:
 Charge =  0 Multiplicity = 7

                         Standard orientation:
 ---------------------------------------------------------------------
 Center     Atomic      Atomic             Coordinates (Angstroms)
 Number     Number       Type             X           Y           Z
 ---------------------------------------------------------------------
      1         25           0        0.000000    0.000000    0.073077
      2          1           0        0.000000    0.000000   -1.826923
 ---------------------------------------------------------------------

 SCF Done:  E(ROHF) =  -1157.94460982     A.U. after   19 cycles
 E2 =    -0.5528357946D+00 EUMP2 =    -0.11584974456154D+04
 CCSD(T)
 CCSD(T)= -0.11585144407D+04

 The electronic state is 7-SG.
 Alpha  occ. eigenvalues -- -242.50970 -29.61233 -24.96694 -24.96694 -24.96625
 Alpha  occ. eigenvalues --   -4.10172  -2.75499  -2.75499  -2.75237  -0.65060
 Alpha  occ. eigenvalues --   -0.65060  -0.64393  -0.64335  -0.64335  -0.39423
 Alpha  occ. eigenvalues --   -0.26731
 Alpha virt. eigenvalues --    0.01100   0.01100   0.02330   0.03121   0.05587
 Alpha virt. eigenvalues --    0.05587   0.08091   0.08413   0.08413   0.08901
 Alpha virt. eigenvalues --    0.08901   0.10160   0.13553   0.18682   0.22486

 Mulliken charges and spin densities:
               1          2
     1  Mn   0.430352   5.957037
     2  H   -0.430352   0.042963
 Sum of Mulliken charges =  -0.00000   6.00000

 Dipole moment (field-independent basis, Debye):
    X=              0.0000    Y=              0.0000    Z=              2.0202  Tot=              2.0202
 Quadrupole moment (field-independent basis, Debye-Ang):
   XX=            -16.6494   YY=            -16.6494   ZZ=            -27.6765
   XY=              0.0000   XZ=              0.0000   YZ=              0.0000

 1\1\GINC-C504-081\SP\ROCCSD(T)-RW\Gen\H1Mn1(7)\AANNABE\26-Feb-2018\0\\
 #P ROCCSD(T)=(maxcyc=150, Window=(6,0), SaveAmplitudes, ReadAmplitudes
 )/Gen 5d 7f SCF=(maxcycles=300) Integral(NoXCTest, DKHSO) MaxDisk=500G
 B Pop=Regular Guess=Read IOp(5/15=2)\\MnH\\0,7\Mn,0,0.,0.,0.\H,0,0.,0.
 ,1.9\\Version=ES64L-G16RevA.03\State=7-SG\HF=-1157.9446098\MP2=-1158.4
 974456\MP3=-1158.4925615\PUHF=-1157.9446098\PMP2-0=-1158.4974456\MP4SD
 Q=-1158.4996133\CCSD=-1158.499996\CCSD(T)=-1158.5144407\RMSD=8.720e-09
 \PG=C*V [C*(H1Mn1)]\\@

 Normal termination of Gaussian 16 at Mon Feb 26 04:09:35 2018.
