 Gaussian 16, Revision A.03,
 Gaussian 16:  ES64L-G16RevA.03 25-Dec-2016

 ----------------------------------------------------------------------
 #P ROCCSD(T)=(maxcyc=150, Full, SaveAmplitudes, ReadAmplitudes)/Gen 5d
  7f SCF=(maxcycles=300, VShift=400) Integral(NoXCTest) MaxDisk=500GB P
 op=Full Pseudo=Read Guess=Read
 ----------------------------------------------------------------------

 ---
 MnH
 ---
 Symbolic Z-matrix:
 Charge =  0 Multiplicity = 7

                         Standard orientation:
 ---------------------------------------------------------------------
 Center     Atomic      Atomic             Coordinates (Angstroms)
 Number     Number       Type             X           Y           Z
 ---------------------------------------------------------------------
      1         25           0        0.000000    0.000000    0.069231
      2          1           0        0.000000    0.000000   -1.730769
 ---------------------------------------------------------------------

 SCF Done:  E(ROHF) =  -103.800854726     A.U. after   29 cycles
 E2 =    -0.5992469592D+00 EUMP2 =    -0.10440010168530D+03
 CCSD(T)
 CCSD(T)= -0.10442184058D+03

 The electronic state is 7-SG.
 Alpha  occ. eigenvalues --   -4.15393  -2.77466  -2.77466  -2.77234  -0.64916
 Alpha  occ. eigenvalues --   -0.64916  -0.64437  -0.64213  -0.64213  -0.40189
 Alpha  occ. eigenvalues --   -0.26445
 Alpha virt. eigenvalues --    0.01129   0.01129   0.02170   0.02898   0.05003
 Alpha virt. eigenvalues --    0.05003   0.05629   0.05790   0.05790   0.06197
 Alpha virt. eigenvalues --    0.06197   0.09251   0.12987   0.13974   0.18067

 Mulliken charges and spin densities:
               1          2
     1  Mn   0.367575   5.952103
     2  H   -0.367575   0.047897
 Sum of Mulliken charges =  -0.00000   6.00000

 Dipole moment (field-independent basis, Debye):
    X=              0.0000    Y=              0.0000    Z=              1.6663  Tot=              1.6663
 Quadrupole moment (field-independent basis, Debye-Ang):
   XX=            -16.2719   YY=            -16.2719   ZZ=            -26.8583
   XY=              0.0000   XZ=              0.0000   YZ=              0.0000

 \\#P ROCCSD(T)=(maxcyc=150, Full, SaveAmplitudes, ReadAmplitudes)/Gen
 \PUHF=-103.8008547\PMP2-0=-104.4001017\CCSD=-104.4052913\CCSD(T)=-104.
 Normal termination of Gaussian 16 at Sat May  5 11:00:35 2018.
