 Gaussian 16, Revision A.03,
 Gaussian 16:  ES64L-G16RevA.03 25-Dec-2016

 ----------------------------------------------------------------------
 #P ROCCSD(T)=(maxcyc=100, Full)/Gen SCF=(maxcycle=400, symm) Pseudo=Re
 ad Integral(NoXCTest) Pop=Regular MaxDisk=500GB Guess=Permute IOp(5/15
 =2)
 ----------------------------------------------------------------------

 ---
 FeH
 ---
 Symbolic Z-matrix:
 Charge =  0 Multiplicity = 4

                         Standard orientation:
 ---------------------------------------------------------------------
 Center     Atomic      Atomic             Coordinates (Angstroms)
 Number     Number       Type             X           Y           Z
 ---------------------------------------------------------------------
      1         26           0        0.000000    0.000000    0.040741
      2          1           0        0.000000    0.000000   -1.059259
 ---------------------------------------------------------------------

 SCF Done:  E(ROHF) =  -123.488361541     A.U. after   29 cycles
 E2 =    -0.7865953258D+00 EUMP2 =    -0.12427495686709D+03
 CCSD(T)
 CCSD(T)= -0.12427469451D+03

 Unable to determine electronic state:  an orbital has unidentified symmetry.
 Alpha  occ. eigenvalues --   -4.24734  -2.84558  -2.81208  -2.81208  -0.58742
 Alpha  occ. eigenvalues --   -0.57080  -0.57080  -0.53867  -0.48856  -0.30038
 Alpha virt. eigenvalues --    0.00669   0.02419   0.02419   0.02760   0.04830
 Alpha virt. eigenvalues --    0.08028   0.08028   0.09520   0.10187   0.10187
 Alpha virt. eigenvalues --    0.10331   0.10365   0.10530   0.16217   0.25364

 Mulliken charges and spin densities:
               1          2
     1  Fe   0.235323   2.986139
     2  H   -0.235323   0.013861
 Sum of Mulliken charges =  -0.00000   3.00000

 Dipole moment (field-independent basis, Debye):
    X=              0.0000    Y=              0.0000    Z=              2.7060  Tot=              2.7060
 Quadrupole moment (field-independent basis, Debye-Ang):
   XX=            -16.9440   YY=            -16.9440   ZZ=            -15.8133
   XY=              0.0000   XZ=              0.0000   YZ=              0.0000

 \\#P ROCCSD(T)=(maxcyc=100, Full)/Gen SCF=(maxcycle=400, symm) Pseudo=
 2453434\CCSD(T)=-124.2746945\RMSD=5.328e-09\PG=C*V [C*(H1Fe1)]\\@
 Normal termination of Gaussian 16 at Mon Feb 12 20:22:37 2018.
