 Gaussian 16, Revision A.03,
 Gaussian 16:  ES64L-G16RevA.03 25-Dec-2016

 ----------------------------------------------------------------------
 #P ROCCSD(T)=(maxcyc=100, Full)/Gen SCF=(maxcycle=400, symm) Pseudo=Re
 ad Integral(NoXCTest) Pop=Regular MaxDisk=500GB Guess=Permute IOp(5/15
 =2)
 ----------------------------------------------------------------------

 ---
 FeH
 ---
 Symbolic Z-matrix:
 Charge =  0 Multiplicity = 4

                         Standard orientation:
 ---------------------------------------------------------------------
 Center     Atomic      Atomic             Coordinates (Angstroms)
 Number     Number       Type             X           Y           Z
 ---------------------------------------------------------------------
      1         26           0        0.000000    0.000000    0.040741
      2          1           0        0.000000    0.000000   -1.059259
 ---------------------------------------------------------------------

 SCF Done:  E(ROHF) =  -123.490255359     A.U. after   33 cycles
 E2 =    -0.8361857273D+00 EUMP2 =    -0.12432644108636D+03
 CCSD(T)
 CCSD(T)= -0.12432233608D+03

 Unable to determine electronic state:  partially filled degenerate orbitals.
 Alpha  occ. eigenvalues --   -4.24698  -2.84527  -2.81180  -2.81180  -0.58750
 Alpha  occ. eigenvalues --   -0.57080  -0.57080  -0.53867  -0.48862  -0.30038
 Alpha virt. eigenvalues --    0.00566   0.02167   0.02167   0.02249   0.04030
 Alpha virt. eigenvalues --    0.05982   0.06223   0.06223   0.06291   0.06300
 Alpha virt. eigenvalues --    0.06933   0.06933   0.07990   0.12771   0.17523

 Mulliken charges and spin densities:
               1          2
     1  Fe   0.301790   2.986589
     2  H   -0.301790   0.013411
 Sum of Mulliken charges =  -0.00000   3.00000

 Dipole moment (field-independent basis, Debye):
    X=              0.0000    Y=              0.0000    Z=              2.7051  Tot=              2.7051
 Quadrupole moment (field-independent basis, Debye-Ang):
   XX=            -16.9350   YY=            -16.9350   ZZ=            -15.8149
   XY=              0.0000   XZ=              0.0000   YZ=              0.0000

 \\#P ROCCSD(T)=(maxcyc=100, Full)/Gen SCF=(maxcycle=400, symm) Pseudo=
 2911832\CCSD(T)=-124.3223361\RMSD=5.329e-09\PG=C*V [C*(H1Fe1)]\\@
 Normal termination of Gaussian 16 at Mon Feb 12 22:39:14 2018.
