 Gaussian 16, Revision A.03,
 Gaussian 16:  ES64L-G16RevA.03 25-Dec-2016

 ----------------------------------------------------------------------
 #P ROCCSD(T)=(maxcyc=100, Full)/Gen SCF=(maxcycle=400, symm) Pseudo=Re
 ad Integral(NoXCTest) Pop=Regular MaxDisk=500GB Guess=Permute IOp(5/15
 =2)
 ----------------------------------------------------------------------

 ---
 FeH
 ---
 Symbolic Z-matrix:
 Charge =  0 Multiplicity = 4

                         Standard orientation:
 ---------------------------------------------------------------------
 Center     Atomic      Atomic             Coordinates (Angstroms)
 Number     Number       Type             X           Y           Z
 ---------------------------------------------------------------------
      1         26           0        0.000000    0.000000    0.040741
      2          1           0        0.000000    0.000000   -1.059259
 ---------------------------------------------------------------------

 SCF Done:  E(ROHF) =  -123.489698348     A.U. after   21 cycles
 E2 =    -0.8219880616D+00 EUMP2 =    -0.12431168640975D+03
 CCSD(T)
 CCSD(T)= -0.12430955397D+03

 Unable to determine electronic state:  partially filled degenerate orbitals.
 Alpha  occ. eigenvalues --   -4.24681  -2.84532  -2.81185  -2.81185  -0.58749
 Alpha  occ. eigenvalues --   -0.57082  -0.57082  -0.53870  -0.48860  -0.30037
 Alpha virt. eigenvalues --    0.00634   0.02227   0.02227   0.02508   0.04726
 Alpha virt. eigenvalues --    0.06285   0.06770   0.06770   0.06867   0.06878
 Alpha virt. eigenvalues --    0.07253   0.07253   0.09073   0.17075   0.18447

 Mulliken charges and spin densities:
               1          2
     1  Fe   0.354732   2.988961
     2  H   -0.354732   0.011039
 Sum of Mulliken charges =  -0.00000   3.00000

 Dipole moment (field-independent basis, Debye):
    X=              0.0000    Y=              0.0000    Z=              2.7051  Tot=              2.7051
 Quadrupole moment (field-independent basis, Debye-Ang):
   XX=            -16.9365   YY=            -16.9365   ZZ=            -15.8145
   XY=              0.0000   XZ=              0.0000   YZ=              0.0000

 \\#P ROCCSD(T)=(maxcyc=100, Full)/Gen SCF=(maxcycle=400, symm) Pseudo=
 2788594\CCSD(T)=-124.309554\RMSD=5.853e-09\PG=C*V [C*(H1Fe1)]\\@
 Normal termination of Gaussian 16 at Mon Feb 12 20:58:57 2018.
