 Gaussian 16, Revision A.03,
 Gaussian 16:  ES64L-G16RevA.03 25-Dec-2016

 ----------------------------------------------------------------------
 #P ROCCSD(T)=(MaxCyc=150, Window=(7,0))/Gen SCF=(maxcycle=400) Integra
 l(DKHSO, NoXCTest) Pop=Regular MaxDisk=500GB Guess=Read IOp(5/15=2)
 ----------------------------------------------------------------------

 ---
 CoO
 ---
 Symbolic Z-matrix:
 Charge =  0 Multiplicity = 4

                         Standard orientation:
 ---------------------------------------------------------------------
 Center     Atomic      Atomic             Coordinates (Angstroms)
 Number     Number       Type             X           Y           Z
 ---------------------------------------------------------------------
      1         27           0        0.000000    0.000000    0.388571
      2          8           0        0.000000    0.000000   -1.311429
 ---------------------------------------------------------------------

 SCF Done:  E(ROHF) =  -1466.71530036     A.U. after   22 cycles
 E2 =    -0.1105935030D+01 EUMP2 =    -0.14678212353884D+04
 CCSD(T)
 CCSD(T)= -0.14678305500D+04

 Unable to determine electronic state:  partially filled degenerate orbitals.
 Alpha  occ. eigenvalues -- -285.82260 -35.55615 -30.32366 -30.32366 -30.32014
 Alpha  occ. eigenvalues --  -20.48967  -4.79349  -3.22865  -3.22679  -3.22679
 Alpha  occ. eigenvalues --   -1.14155  -0.76448  -0.76448  -0.75738  -0.70691
 Alpha  occ. eigenvalues --   -0.68239  -0.38240  -0.38240  -0.35748
 Alpha virt. eigenvalues --   -0.04986   0.01736   0.01736   0.01936   0.03757
 Alpha virt. eigenvalues --    0.06679   0.06679   0.07072   0.07081   0.07095
 Alpha virt. eigenvalues --    0.08241   0.08241   0.12552   0.14367   0.20951

 Mulliken charges and spin densities:
               1          2
     1  Co   0.995398   2.933047
     2  O   -0.995398   0.066953
 Sum of Mulliken charges =  -0.00000   3.00000

 Dipole moment (field-independent basis, Debye):
    X=              0.0000    Y=             -0.0000    Z=              7.9776  Tot=              7.9776
 Quadrupole moment (field-independent basis, Debye-Ang):
   XX=            -19.3110   YY=            -19.3110   ZZ=            -22.5027
   XY=             -0.0000   XZ=              0.0000   YZ=             -0.0000

 1\1\GINC-C420-092\SP\ROCCSD(T)-RW\Gen\Co1O1(4)\GWANG18\31-Mar-2018\0\\
 #P ROCCSD(T)=(MaxCyc=150, Window=(7,0))/Gen SCF=(maxcycle=400) Integra
 l(DKHSO, NoXCTest) Pop=Regular MaxDisk=500GB Guess=Read IOp(5/15=2)\\C
 oO\\0,4\Co,0,0.,0.,0.\O,0,0.,0.,1.7\\Version=ES64L-G16RevA.03\HF=-1466
 .7153004\MP2=-1467.8212354\MP3=-1467.7166827\PUHF=-1466.7153004\PMP2-0
 =-1467.8212354\MP4SDQ=-1467.7849983\CCSD=-1467.7738028\CCSD(T)=-1467.8
 3055\RMSD=1.754e-09\PG=C*V [C*(O1Co1)]\\@

 Normal termination of Gaussian 16 at Sat Mar 31 22:57:27 2018.
