 Gaussian 16, Revision A.03,
 Gaussian 16:  ES64L-G16RevA.03 25-Dec-2016

 ----------------------------------------------------------------------
 #P ROCCSD(T)=(maxcyc=150, Full, SaveAmplitudes, ReadAmplitudes)/Gen 5d
  7f SCF=(maxcycles=300) Integral(NoXCTest) MaxDisk=500GB Pop=Regular P
 seudo=Read Guess=Read
 ----------------------------------------------------------------------

 ---
 TiO
 ---
 Symbolic Z-matrix:
 Charge =  0 Multiplicity = 3

                         Standard orientation:
 ---------------------------------------------------------------------
 Center     Atomic      Atomic             Coordinates (Angstroms)
 Number     Number       Type             X           Y           Z
 ---------------------------------------------------------------------
      1         22           0        0.000000    0.000000    0.373333
      2          8           0        0.000000    0.000000   -1.026667
 ---------------------------------------------------------------------

 SCF Done:  E(ROHF) =  -73.3504711485     A.U. after   22 cycles
 E2 =    -0.7711683256D+00 EUMP2 =    -0.74121639474098D+02
 CCSD(T)
 CCSD(T)= -0.74144408291D+02

 Unable to determine electronic state:  an orbital has unidentified symmetry.
 Alpha  occ. eigenvalues --   -2.95824  -1.92124  -1.85175  -1.85175  -1.16434
 Alpha  occ. eigenvalues --   -0.53624  -0.53624  -0.50453  -0.39158  -0.23251
 Alpha virt. eigenvalues --    0.00955   0.00955   0.02029   0.02299   0.03775
 Alpha virt. eigenvalues --    0.03831   0.03853   0.03853   0.03949   0.04396
 Alpha virt. eigenvalues --    0.04396   0.06766   0.10286   0.10459   0.11383

 Mulliken charges and spin densities:
               1          2
     1  Ti   0.938723   1.971689
     2  O   -0.938723   0.028311
 Sum of Mulliken charges =  -0.00000   2.00000

 Dipole moment (field-independent basis, Debye):
    X=              0.0000    Y=              0.0000    Z=              1.8893  Tot=              1.8893
 Quadrupole moment (field-independent basis, Debye-Ang):
   XX=            -21.7054   YY=            -21.7054   ZZ=            -27.7731
   XY=              0.0000   XZ=              0.0000   YZ=              0.0000

 \\#P ROCCSD(T)=(maxcyc=150, Full, SaveAmplitudes, ReadAmplitudes)/Gen
 -0=-74.1216395\CCSD=-74.1049844\CCSD(T)=-74.1444083\RMSD=2.510e-10\PG=
 Normal termination of Gaussian 16 at Fri Mar  9 16:54:33 2018.
