 Gaussian 16, Revision A.03,
 Gaussian 16:  ES64L-G16RevA.03 25-Dec-2016

 ----------------------------------------------------------------------
 #P ROCCSD(T)=(maxcyc=150, Full)/Gen 5d 7f SCF=(maxcycles=300) Integral
 (NoXCTest) MaxDisk=500GB Pop=Regular Pseudo=Read IOp(5/15=2) Guess=Rea
 d
 ----------------------------------------------------------------------

 ---
 ScH
 ---
 Symbolic Z-matrix:
 Charge =  0 Multiplicity = 1

                         Standard orientation:
 ---------------------------------------------------------------------
 Center     Atomic      Atomic             Coordinates (Angstroms)
 Number     Number       Type             X           Y           Z
 ---------------------------------------------------------------------
      1         21           0        0.000000    0.000000    0.100000
      2          1           0        0.000000    0.000000   -2.100000
 ---------------------------------------------------------------------

 SCF Done:  E(ROHF) =  -46.5771993276     A.U. after   10 cycles
 E2 =    -0.4244027269D+00 EUMP2 =    -0.47001602054539D+02
 CCSD(T)
 CCSD(T)= -0.47047680486D+02

 The electronic state is 1-SG.
 Alpha  occ. eigenvalues --   -2.72860  -1.69559  -1.69559  -1.69365  -0.35667
 Alpha  occ. eigenvalues --   -0.24624
 Alpha virt. eigenvalues --    0.00837   0.00837   0.00933   0.01874   0.02549
 Alpha virt. eigenvalues --    0.02549   0.02690   0.02690   0.02775   0.03269
 Alpha virt. eigenvalues --    0.03704   0.03704   0.05921   0.05921   0.06822

 Mulliken charges and spin densities:
               1          2
     1  Sc   0.352975   0.000000
     2  H   -0.352975   0.000000
 Sum of Mulliken charges =  -0.00000   0.00000

 Dipole moment (field-independent basis, Debye):
    X=              0.0000    Y=              0.0000    Z=              3.0101  Tot=              3.0101
 Quadrupole moment (field-independent basis, Debye-Ang):
   XX=            -22.8975   YY=            -22.8975   ZZ=            -30.0708
   XY=              0.0000   XZ=              0.0000   YZ=              0.0000

 P ROCCSD(T)=(maxcyc=150, Full)/Gen 5d 7f SCF=(maxcycles=300) Integral(
 PMP2-0=-47.0016021\MP4SDQ=-47.0255881\CCSD=-47.0265521\CCSD(T)=-47.047
 Normal termination of Gaussian 16 at Wed Feb 14 13:16:43 2018.
