 Gaussian 16, Revision A.03,
 Gaussian 16:  ES64L-G16RevA.03 25-Dec-2016

 ----------------------------------------------------------------------
 #P ROCCSD(T)=(MaxCyc=150, Full)/Gen SCF=(maxcycle=400, vshift=200) Pse
 udo=Read Integral(NoXCTest) Pop=Regular MaxDisk=500GB Guess=Read
 ----------------------------------------------------------------------

 ---
 NiO
 ---
 Symbolic Z-matrix:
 Charge =  0 Multiplicity = 3

                         Standard orientation:
 ---------------------------------------------------------------------
 Center     Atomic      Atomic             Coordinates (Angstroms)
 Number     Number       Type             X           Y           Z
 ---------------------------------------------------------------------
      1         28           0        0.000000    0.000000    0.333333
      2          8           0        0.000000    0.000000   -1.166667
 ---------------------------------------------------------------------

 SCF Done:  E(ROHF) =  -184.091412255     A.U. after   31 cycles
 E2 =    -0.1191019240D+01 EUMP2 =    -0.18528243149544D+03
 CCSD(T)
 CCSD(T)= -0.18529436581D+03

 The electronic state is 3-SG.
 Alpha  occ. eigenvalues --   -5.16547  -3.50966  -3.42109  -3.42109  -1.20435
 Alpha  occ. eigenvalues --   -0.79214  -0.79214  -0.71416  -0.69231  -0.69231
 Alpha  occ. eigenvalues --   -0.39678  -0.39678  -0.37813
 Alpha virt. eigenvalues --   -0.04255   0.02449   0.02449   0.02581   0.04260
 Alpha virt. eigenvalues --    0.08570   0.08570   0.10801   0.12352   0.12352
 Alpha virt. eigenvalues --    0.13261   0.13261   0.15560   0.16489   0.26385

 Mulliken charges and spin densities:
               1          2
     1  Ni   1.129077   1.833174
     2  O   -1.129077   0.166826
 Sum of Mulliken charges =  -0.00000   2.00000

 Dipole moment (field-independent basis, Debye):
    X=              0.0000    Y=              0.0000    Z=              7.3581  Tot=              7.3581
 Quadrupole moment (field-independent basis, Debye-Ang):
   XX=            -18.2993   YY=            -18.2993   ZZ=            -20.2825
   XY=              0.0000   XZ=              0.0000   YZ=              0.0000

 \\#P ROCCSD(T)=(MaxCyc=150, Full)/Gen SCF=(maxcycle=400, vshift=200) P
 MP2-0=-185.2824315\MP4SDQ=-185.257208\CCSD=-185.2370165\CCSD(T)=-185.2
 Normal termination of Gaussian 16 at Fri Aug 17 11:44:41 2018.
