 Gaussian 16, Revision A.03,
 Gaussian 16:  ES64L-G16RevA.03 25-Dec-2016

 ----------------------------------------------------------------------
 #P ROCCSD(T)=(MaxCyc=150, Full)/Gen SCF=(maxcycle=400, vshift=200) Pse
 udo=Read Integral(NoXCTest) Pop=Regular MaxDisk=500GB Guess=Read
 ----------------------------------------------------------------------

 ---
 NiO
 ---
 Symbolic Z-matrix:
 Charge =  0 Multiplicity = 3

                         Standard orientation:
 ---------------------------------------------------------------------
 Center     Atomic      Atomic             Coordinates (Angstroms)
 Number     Number       Type             X           Y           Z
 ---------------------------------------------------------------------
      1         28           0        0.000000    0.000000    0.333333
      2          8           0        0.000000    0.000000   -1.166667
 ---------------------------------------------------------------------

 SCF Done:  E(ROHF) =  -184.094970819     A.U. after   21 cycles
 E2 =    -0.1248640655D+01 EUMP2 =    -0.18534361147410D+03
 CCSD(T)
 CCSD(T)= -0.18535316579D+03

 The electronic state is 3-SG.
 Alpha  occ. eigenvalues --   -5.16536  -3.50940  -3.42090  -3.42090  -1.20386
 Alpha  occ. eigenvalues --   -0.79211  -0.79211  -0.71408  -0.69230  -0.69230
 Alpha  occ. eigenvalues --   -0.39680  -0.39680  -0.37805
 Alpha virt. eigenvalues --   -0.04245   0.02068   0.02068   0.02282   0.03856
 Alpha virt. eigenvalues --    0.07161   0.07161   0.07620   0.08103   0.08103
 Alpha virt. eigenvalues --    0.09408   0.09408   0.13005   0.15230   0.22408

 Mulliken charges and spin densities:
               1          2
     1  Ni   0.972993   1.836617
     2  O   -0.972993   0.163383
 Sum of Mulliken charges =  -0.00000   2.00000

 Dipole moment (field-independent basis, Debye):
    X=              0.0000    Y=              0.0000    Z=              7.3445  Tot=              7.3445
 Quadrupole moment (field-independent basis, Debye-Ang):
   XX=            -18.2918   YY=            -18.2918   ZZ=            -20.2683
   XY=              0.0000   XZ=              0.0000   YZ=              0.0000

 \\#P ROCCSD(T)=(MaxCyc=150, Full)/Gen SCF=(maxcycle=400, vshift=200) P
 MP2-0=-185.3436115\MP4SDQ=-185.3126092\CCSD=-185.2932086\CCSD(T)=-185.
 Normal termination of Gaussian 16 at Fri Aug 17 12:45:40 2018.
