 Gaussian 16, Revision A.03,
 Gaussian 16:  ES64L-G16RevA.03 25-Dec-2016

 ----------------------------------------------------------------------
 #P ROCCSD(T)=(MaxCyc=150, Full)/Gen SCF=(maxcycle=400, vshift=200) Pse
 udo=Read Integral(NoXCTest) Pop=Regular MaxDisk=500GB Guess=Read
 ----------------------------------------------------------------------

 ---
 NiO
 ---
 Symbolic Z-matrix:
 Charge =  0 Multiplicity = 3

                         Standard orientation:
 ---------------------------------------------------------------------
 Center     Atomic      Atomic             Coordinates (Angstroms)
 Number     Number       Type             X           Y           Z
 ---------------------------------------------------------------------
      1         28           0        0.000000    0.000000    0.333333
      2          8           0        0.000000    0.000000   -1.166667
 ---------------------------------------------------------------------

 SCF Done:  E(ROHF) =  -184.105201621     A.U. after   27 cycles
 E2 =    -0.1186994738D+01 EUMP2 =    -0.18529219635908D+03
 CCSD(T)
 CCSD(T)= -0.18530620780D+03

 The electronic state is 3-SG.
 Alpha  occ. eigenvalues --   -5.19040  -3.49380  -3.40481  -3.40481  -1.20420
 Alpha  occ. eigenvalues --   -0.79260  -0.79260  -0.71460  -0.69238  -0.69238
 Alpha  occ. eigenvalues --   -0.39666  -0.39666  -0.37824
 Alpha virt. eigenvalues --   -0.04268   0.02448   0.02448   0.02576   0.04261
 Alpha virt. eigenvalues --    0.08567   0.08567   0.10797   0.12351   0.12351
 Alpha virt. eigenvalues --    0.13261   0.13261   0.15562   0.16482   0.26387

 Mulliken charges and spin densities:
               1          2
     1  Ni   1.128209   1.833390
     2  O   -1.128209   0.166610
 Sum of Mulliken charges =  -0.00000   2.00000

 Dipole moment (field-independent basis, Debye):
    X=              0.0000    Y=              0.0000    Z=              7.3645  Tot=              7.3645
 Quadrupole moment (field-independent basis, Debye-Ang):
   XX=            -18.2879   YY=            -18.2879   ZZ=            -20.2732
   XY=              0.0000   XZ=              0.0000   YZ=              0.0000

 \\#P ROCCSD(T)=(MaxCyc=150, Full)/Gen SCF=(maxcycle=400, vshift=200) P
 PMP2-0=-185.2921964\MP4SDQ=-185.2679387\CCSD=-185.2489377\CCSD(T)=-185
 Normal termination of Gaussian 16 at Fri May  4 11:36:36 2018.
