 Gaussian 16, Revision A.03,
 Gaussian 16:  ES64L-G16RevA.03 25-Dec-2016

 ----------------------------------------------------------------------
 #P ROCCSD(T)=(MaxCyc=150, Full)/Gen SCF=(maxcycle=400, vshift=200) Pse
 udo=Read Integral(NoXCTest) Pop=Regular MaxDisk=500GB Guess=Read
 ----------------------------------------------------------------------

 ---
 NiO
 ---
 Symbolic Z-matrix:
 Charge =  0 Multiplicity = 3

                         Standard orientation:
 ---------------------------------------------------------------------
 Center     Atomic      Atomic             Coordinates (Angstroms)
 Number     Number       Type             X           Y           Z
 ---------------------------------------------------------------------
      1         28           0        0.000000    0.000000    0.333333
      2          8           0        0.000000    0.000000   -1.166667
 ---------------------------------------------------------------------

 SCF Done:  E(ROHF) =  -184.108899691     A.U. after   19 cycles
 E2 =    -0.1244740900D+01 EUMP2 =    -0.18535364059035D+03
 CCSD(T)
 CCSD(T)= -0.18536526982D+03

 The electronic state is 3-SG.
 Alpha  occ. eigenvalues --   -5.19034  -3.49357  -3.40465  -3.40465  -1.20372
 Alpha  occ. eigenvalues --   -0.79256  -0.79256  -0.71452  -0.69238  -0.69238
 Alpha  occ. eigenvalues --   -0.39668  -0.39668  -0.37817
 Alpha virt. eigenvalues --   -0.04259   0.02067   0.02067   0.02278   0.03857
 Alpha virt. eigenvalues --    0.07159   0.07159   0.07619   0.08103   0.08103
 Alpha virt. eigenvalues --    0.09408   0.09408   0.13005   0.15224   0.22401

 Mulliken charges and spin densities:
               1          2
     1  Ni   0.973623   1.836797
     2  O   -0.973623   0.163203
 Sum of Mulliken charges =  -0.00000   2.00000

 Dipole moment (field-independent basis, Debye):
    X=              0.0000    Y=              0.0000    Z=              7.3509  Tot=              7.3509
 Quadrupole moment (field-independent basis, Debye-Ang):
   XX=            -18.2803   YY=            -18.2803   ZZ=            -20.2588
   XY=              0.0000   XZ=              0.0000   YZ=              0.0000

 \\#P ROCCSD(T)=(MaxCyc=150, Full)/Gen SCF=(maxcycle=400, vshift=200) P
 PMP2-0=-185.3536406\MP4SDQ=-185.3236094\CCSD=-185.3053898\CCSD(T)=-185
 Normal termination of Gaussian 16 at Fri May  4 14:13:58 2018.
