 Gaussian 16, Revision A.03,
 Gaussian 16:  ES64L-G16RevA.03 25-Dec-2016

 ----------------------------------------------------------------------
 #P ROCCSD(T)=(MaxCyc=150, Full)/Gen SCF=(maxcycle=400) Integral(DKHSO,
  NoXCTest) Pop=Regular MaxDisk=500GB Guess=Read IOp(5/15=2)
 ----------------------------------------------------------------------

 ---
 CuO
 ---
 Symbolic Z-matrix:
 Charge =  0 Multiplicity = 2

                         Standard orientation:
 ---------------------------------------------------------------------
 Center     Atomic      Atomic             Coordinates (Angstroms)
 Number     Number       Type             X           Y           Z
 ---------------------------------------------------------------------
      1         29           0        0.000000    0.000000    0.302703
      2          8           0        0.000000    0.000000   -1.097297
 ---------------------------------------------------------------------

 SCF Done:  E(ROHF) =  -1727.92236655     A.U. after   20 cycles
 E2 =    -0.1813572879D+01 EUMP2 =    -0.17297359394322D+04
 CCSD(T)
 CCSD(T)= -0.17296384278D+04

 Unable to determine electronic state:  an orbital has unidentified symmetry.
 Alpha  occ. eigenvalues -- -332.57918 -41.77289 -35.91192 -35.91113 -35.90602
 Alpha  occ. eigenvalues --  -20.56896  -5.27312  -3.49673  -3.46833  -3.45821
 Alpha  occ. eigenvalues --   -1.30230  -0.69912  -0.66359  -0.62750  -0.57347
 Alpha  occ. eigenvalues --   -0.57343  -0.48726  -0.43365  -0.37039
 Alpha virt. eigenvalues --   -0.00124   0.03060   0.03231   0.03950   0.05272
 Alpha virt. eigenvalues --    0.10825   0.11311   0.13689   0.19288   0.19994
 Alpha virt. eigenvalues --    0.20013   0.21255   0.21669   0.22158   0.26023

 Mulliken charges and spin densities:
               1          2
     1  Cu   0.872559   0.085919
     2  O   -0.872559   0.914081
 Sum of Mulliken charges =  -0.00000   1.00000

 Dipole moment (field-independent basis, Debye):
    X=              0.0000    Y=              0.0000    Z=              4.3654  Tot=              4.3654
 Quadrupole moment (field-independent basis, Debye-Ang):
   XX=            -18.3648   YY=            -16.8788   ZZ=            -18.6307
   XY=              0.0000   XZ=              0.0000   YZ=              0.0000

 \\#P ROCCSD(T)=(MaxCyc=150, Full)/Gen SCF=(maxcycle=400) Integral(DKHS
 .7359394\MP4SDQ=-1729.6793195\CCSD=-1729.5843233\CCSD(T)=-1729.6384278
 Normal termination of Gaussian 16 at Sat Mar 24 00:11:52 2018.
