 Gaussian 16, Revision A.03,
 Gaussian 16:  ES64L-G16RevA.03 25-Dec-2016

 ----------------------------------------------------------------------
 #P ROCCSD(T)=(maxcyc=150, Full)/Gen 5d 7f SCF=(maxcycles=300) Integral
 (NoXCTest) MaxDisk=500GB Pop=Regular Pseudo=Read IOp(5/15=2) Guess=Rea
 d
 ----------------------------------------------------------------------

 ---
 ScH
 ---
 Symbolic Z-matrix:
 Charge =  0 Multiplicity = 1

                         Standard orientation:
 ---------------------------------------------------------------------
 Center     Atomic      Atomic             Coordinates (Angstroms)
 Number     Number       Type             X           Y           Z
 ---------------------------------------------------------------------
      1         21           0        0.000000    0.000000    0.095455
      2          1           0        0.000000    0.000000   -2.004545
 ---------------------------------------------------------------------

 SCF Done:  E(ROHF) =  -46.5845215261     A.U. after   11 cycles
 E2 =    -0.4173058343D+00 EUMP2 =    -0.47001827360418D+02
 CCSD(T)
 CCSD(T)= -0.47048428769D+02

 The electronic state is 1-SG.
 Alpha  occ. eigenvalues --   -2.72162  -1.68912  -1.68912  -1.68709  -0.36791
 Alpha  occ. eigenvalues --   -0.24279
 Alpha virt. eigenvalues --    0.00921   0.00921   0.01107   0.02063   0.02809
 Alpha virt. eigenvalues --    0.02809   0.02953   0.02953   0.03023   0.03644
 Alpha virt. eigenvalues --    0.03839   0.03839   0.06419   0.06419   0.07337

 Mulliken charges and spin densities:
               1          2
     1  Sc   0.273308   0.000000
     2  H   -0.273308   0.000000
 Sum of Mulliken charges =  -0.00000   0.00000

 Dipole moment (field-independent basis, Debye):
    X=              0.0000    Y=              0.0000    Z=              2.6033  Tot=              2.6033
 Quadrupole moment (field-independent basis, Debye-Ang):
   XX=            -22.9233   YY=            -22.9233   ZZ=            -29.1782
   XY=              0.0000   XZ=              0.0000   YZ=              0.0000

 P ROCCSD(T)=(maxcyc=150, Full)/Gen 5d 7f SCF=(maxcycles=300) Integral(
 PMP2-0=-47.0018274\MP4SDQ=-47.027587\CCSD=-47.0281781\CCSD(T)=-47.0484
 Normal termination of Gaussian 16 at Wed Feb 14 10:16:26 2018.
