 Gaussian 16, Revision A.03,
 Gaussian 16:  ES64L-G16RevA.03 25-Dec-2016

 ----------------------------------------------------------------------
 #P ROCCSD(T)=(maxcyc=150, Full, SaveAmplitudes, ReadAmplitudes)/Gen 5d
  7f SCF=(maxcycles=300, VShift=400) Integral(NoXCTest) MaxDisk=500GB P
 op=Full Pseudo=Read Guess=Read IOp(5/15=2)
 ----------------------------------------------------------------------

 ---
 MnH
 ---
 Symbolic Z-matrix:
 Charge =  0 Multiplicity = 7

                         Standard orientation:
 ---------------------------------------------------------------------
 Center     Atomic      Atomic             Coordinates (Angstroms)
 Number     Number       Type             X           Y           Z
 ---------------------------------------------------------------------
      1         25           0        0.000000    0.000000    0.053846
      2          1           0        0.000000    0.000000   -1.346154
 ---------------------------------------------------------------------

 SCF Done:  E(ROHF) =  -103.761245783     A.U. after   45 cycles
 E2 =    -0.5851327885D+00 EUMP2 =    -0.10434637857134D+03
 CCSD(T)
 CCSD(T)= -0.10436736012D+03

 The electronic state is 7-SG.
 Alpha  occ. eigenvalues --   -4.14222  -2.76337  -2.76113  -2.76113  -0.65467
 Alpha  occ. eigenvalues --   -0.63650  -0.63650  -0.63227  -0.63227  -0.41951
 Alpha  occ. eigenvalues --   -0.24832
 Alpha virt. eigenvalues --    0.01376   0.01376   0.02202   0.03234   0.05856
 Alpha virt. eigenvalues --    0.05856   0.08517   0.08517   0.08537   0.08963
 Alpha virt. eigenvalues --    0.08963   0.09224   0.14167   0.21141   0.22802

 Mulliken charges and spin densities:
               1          2
     1  Mn   0.443538   5.950316
     2  H   -0.443538   0.049684
 Sum of Mulliken charges =  -0.00000   6.00000

 Dipole moment (field-independent basis, Debye):
    X=              0.0000    Y=              0.0000    Z=              0.2892  Tot=              0.2892
 Quadrupole moment (field-independent basis, Debye-Ang):
   XX=            -16.0035   YY=            -16.0035   ZZ=            -25.4642
   XY=              0.0000   XZ=              0.0000   YZ=              0.0000

 \\#P ROCCSD(T)=(maxcyc=150, Full, SaveAmplitudes, ReadAmplitudes)/Gen
 4SDQ=-104.3501451\CCSD=-104.3509588\CCSD(T)=-104.3673601\RMSD=7.464e-0
 Normal termination of Gaussian 16 at Sat May  5 07:49:08 2018.
