 Gaussian 16, Revision A.03,
 Gaussian 16:  ES64L-G16RevA.03 25-Dec-2016

 ----------------------------------------------------------------------
 #P ROCCSD(T)=(MaxCyc=150, FrzINGC)/Gen SCF=(maxcycle=400) Integral(DKH
 SO, NoXCTest) Pop=Regular MaxDisk=500GB Guess=Read IOp(5/15=2)
 ----------------------------------------------------------------------

 ---
 FeH
 ---
 Symbolic Z-matrix:
 Charge =  0 Multiplicity = 4

                         Standard orientation:
 ---------------------------------------------------------------------
 Center     Atomic      Atomic             Coordinates (Angstroms)
 Number     Number       Type             X           Y           Z
 ---------------------------------------------------------------------
      1         26           0        0.000000    0.000000    0.055556
      2          1           0        0.000000    0.000000   -1.444444
 ---------------------------------------------------------------------

 SCF Done:  E(ROHF) =  -1271.81843814     A.U. after   29 cycles
 E2 =    -0.7586262555D+00 EUMP2 =    -0.12725770643981D+04
 CCSD(T)
 CCSD(T)= -0.12725662147D+04

 Unable to determine electronic state:  an orbital has unidentified symmetry.
 Alpha  occ. eigenvalues -- -263.54346 -32.32150 -27.38952 -27.38891 -27.38891
 Alpha  occ. eigenvalues --   -4.21750  -2.76943  -2.75930  -2.75930  -0.50877
 Alpha  occ. eigenvalues --   -0.50877  -0.49747  -0.46317  -0.44798  -0.31643
 Alpha virt. eigenvalues --   -0.00209   0.02458   0.02458   0.03127   0.04331
 Alpha virt. eigenvalues --    0.08440   0.08440   0.09600   0.10267   0.10306
 Alpha virt. eigenvalues --    0.10381   0.10381   0.10669   0.17093   0.24131

 Mulliken charges and spin densities:
               1          2
     1  Fe   0.420140   2.996715
     2  H   -0.420140   0.003285
 Sum of Mulliken charges =  -0.00000   3.00000

 Dipole moment (field-independent basis, Debye):
    X=              0.0000    Y=              0.0000    Z=              4.0857  Tot=              4.0857
 Quadrupole moment (field-independent basis, Debye-Ang):
   XX=            -16.1460   YY=            -16.1460   ZZ=            -17.1293
   XY=              0.0000   XZ=              0.0000   YZ=              0.0000

 \#P ROCCSD(T)=(MaxCyc=150, FrzINGC)/Gen SCF=(maxcycle=400) Integral(DK
 72.5770644\MP4SDQ=-1272.5516115\CCSD=-1272.5385315\CCSD(T)=-1272.56621
 Normal termination of Gaussian 16 at Wed Mar  7 11:18:10 2018.
