 Gaussian 16, Revision A.03,
 Gaussian 16:  ES64L-G16RevA.03 25-Dec-2016

 ----------------------------------------------------------------------
 #P ROCCSD(T)=(maxcyc=150, Full, SaveAmplitudes, ReadAmplitudes)/Gen 5d
  7f SCF=(maxcycles=300) Integral(NoXCTest) MaxDisk=500GB Pop=Regular P
 seudo=Read Guess=Read
 ----------------------------------------------------------------------

 ---
 MnO
 ---
 Symbolic Z-matrix:
 Charge =  0 Multiplicity = 6

                         Standard orientation:
 ---------------------------------------------------------------------
 Center     Atomic      Atomic             Coordinates (Angstroms)
 Number     Number       Type             X           Y           Z
 ---------------------------------------------------------------------
      1         25           0        0.000000    0.000000    0.436364
      2          8           0        0.000000    0.000000   -1.363636
 ---------------------------------------------------------------------

 SCF Done:  E(ROHF) =  -119.356100134     A.U. after   24 cycles
 E2 =    -0.9446828036D+00 EUMP2 =    -0.12030078293744D+03
 CCSD(T)
 CCSD(T)= -0.12032802532D+03

 The electronic state is 6-SG.
 Alpha  occ. eigenvalues --   -4.10196  -2.76572  -2.76572  -2.76139  -1.10439
 Alpha  occ. eigenvalues --   -0.64977  -0.64977  -0.64731  -0.64731  -0.61685
 Alpha  occ. eigenvalues --   -0.33574  -0.33574  -0.33309
 Alpha virt. eigenvalues --   -0.05414   0.01156   0.01156   0.01361   0.03356
 Alpha virt. eigenvalues --    0.05656   0.05656   0.05712   0.05712   0.06390
 Alpha virt. eigenvalues --    0.06894   0.06894   0.10940   0.12554   0.17823

 Mulliken charges and spin densities:
               1          2
     1  Mn   1.138387   4.939811
     2  O   -1.138387   0.060189
 Sum of Mulliken charges =  -0.00000   5.00000

 Dipole moment (field-independent basis, Debye):
    X=              0.0000    Y=              0.0000    Z=              9.5375  Tot=              9.5375
 Quadrupole moment (field-independent basis, Debye-Ang):
   XX=            -18.9653   YY=            -18.9653   ZZ=            -24.4707
   XY=              0.0000   XZ=              0.0000   YZ=              0.0000

 \\#P ROCCSD(T)=(maxcyc=150, Full, SaveAmplitudes, ReadAmplitudes)/Gen
 9.3561001\PMP2-0=-120.3007829\CCSD=-120.2849139\CCSD(T)=-120.3280253\R
 Normal termination of Gaussian 16 at Tue Mar 13 14:11:58 2018.
