 Gaussian 16, Revision A.03,
 Gaussian 16:  ES64L-G16RevA.03 25-Dec-2016

 ----------------------------------------------------------------------
 #P ROCCSD(T)=(maxcyc=150, Full, SaveAmplitudes, ReadAmplitudes)/Gen 5d
  7f SCF=(maxcycles=300) Integral(NoXCTest) MaxDisk=500GB Pop=Regular P
 seudo=Read Guess=Read IOp(5/15=2)
 ----------------------------------------------------------------------

 ---
 ScO
 ---
 Symbolic Z-matrix:
 Charge =  0 Multiplicity = 2

                         Standard orientation:
 ---------------------------------------------------------------------
 Center     Atomic      Atomic             Coordinates (Angstroms)
 Number     Number       Type             X           Y           Z
 ---------------------------------------------------------------------
      1         21           0        0.000000    0.000000    0.331034
      2          8           0        0.000000    0.000000   -0.868966
 ---------------------------------------------------------------------

 SCF Done:  E(ROHF) =  -61.6175233532     A.U. after   18 cycles
 E2 =    -0.6516920139D+00 EUMP2 =    -0.62269215367134D+02
 CCSD(T)
 CCSD(T)= -0.62300281547D+02

 The electronic state is 2-SG.
 Alpha  occ. eigenvalues --   -2.61041  -1.82022  -1.52316  -1.52316  -1.04569
 Alpha  occ. eigenvalues --   -0.63816  -0.63816  -0.47745  -0.17860
 Alpha virt. eigenvalues --    0.01025   0.01025   0.01781   0.02780   0.03765
 Alpha virt. eigenvalues --    0.03765   0.03799   0.03799   0.03862   0.04914
 Alpha virt. eigenvalues --    0.04914   0.07188   0.11106   0.11106   0.11187

 Mulliken charges and spin densities:
               1          2
     1  Sc   1.073184   1.029007
     2  O   -1.073184  -0.029007
 Sum of Mulliken charges =  -0.00000   1.00000

 Dipole moment (field-independent basis, Debye):
    X=              0.0000    Y=              0.0000    Z=             -1.2284  Tot=              1.2284
 Quadrupole moment (field-independent basis, Debye-Ang):
   XX=            -23.5297   YY=            -23.5297   ZZ=            -29.0688
   XY=              0.0000   XZ=              0.0000   YZ=              0.0000

 \\#P ROCCSD(T)=(maxcyc=150, Full, SaveAmplitudes, ReadAmplitudes)/Gen
 35\CCSD=-62.2730589\CCSD(T)=-62.3002815\RMSD=4.282e-09\PG=C*V [C*(O1Sc
 Normal termination of Gaussian 16 at Tue Feb 20 21:15:51 2018.
