 Gaussian 16, Revision A.03,
 Gaussian 16:  ES64L-G16RevA.03 25-Dec-2016

 ----------------------------------------------------------------------
 #P ROCCSD(T)=(maxcyc=150, Full)/Gen 5d 7f SCF=(maxcycles=300) Integral
 (NoXCTest, DKHSO) MaxDisk=500GB Pop=Regular IOp(5/15=2) Guess=Read
 ----------------------------------------------------------------------

 ---
 ScH
 ---
 Symbolic Z-matrix:
 Charge =  0 Multiplicity = 1

                         Standard orientation:
 ---------------------------------------------------------------------
 Center     Atomic      Atomic             Coordinates (Angstroms)
 Number     Number       Type             X           Y           Z
 ---------------------------------------------------------------------
      1         21           0        0.000000    0.000000    0.063636
      2          1           0        0.000000    0.000000   -1.336364
 ---------------------------------------------------------------------

 SCF Done:  E(ROHF) =  -763.792941572     A.U. after   12 cycles
 E2 =    -0.8008783008D+00 EUMP2 =    -0.76459381987312D+03
 CCSD(T)
 CCSD(T)= -0.76462519489D+03

 The electronic state is 1-SG.
 Alpha  occ. eigenvalues -- -166.86481 -19.31455 -15.73815 -15.73815 -15.73128
 Alpha  occ. eigenvalues --   -2.63877  -1.63250  -1.61535  -1.61535  -0.45302
 Alpha  occ. eigenvalues --   -0.21972
 Alpha virt. eigenvalues --    0.01256   0.01256   0.01464   0.01687   0.02621
 Alpha virt. eigenvalues --    0.02621   0.02627   0.02627   0.02644   0.04142
 Alpha virt. eigenvalues --    0.04287   0.04287   0.07001   0.07403   0.07403

 Mulliken charges and spin densities:
               1          2
     1  Sc   0.365373   0.000000
     2  H   -0.365373   0.000000
 Sum of Mulliken charges =  -0.00000   0.00000

 Dipole moment (field-independent basis, Debye):
    X=              0.0000    Y=             -0.0000    Z=              0.6052  Tot=              0.6052
 Quadrupole moment (field-independent basis, Debye-Ang):
   XX=            -23.8900   YY=            -23.8900   ZZ=            -24.3798
   XY=              0.0000   XZ=              0.0000   YZ=             -0.0000

 P ROCCSD(T)=(maxcyc=150, Full)/Gen 5d 7f SCF=(maxcycles=300) Integral(
 MP2-0=-764.5938199\MP4SDQ=-764.605752\CCSD=-764.6055248\CCSD(T)=-764.6
 Normal termination of Gaussian 16 at Tue Feb 13 20:31:13 2018.
