 Gaussian 16, Revision A.03,
 Gaussian 16:  ES64L-G16RevA.03 25-Dec-2016

 ----------------------------------------------------------------------
 #P ROCCSD(T)=(maxcyc=150, Full, SaveAmplitudes, ReadAmplitudes)/Gen 5d
  7f SCF=(maxcycles=300) Integral(NoXCTest) MaxDisk=500GB Pop=Regular P
 seudo=Read Guess=Read
 ----------------------------------------------------------------------

 ---
 MnO
 ---
 Symbolic Z-matrix:
 Charge =  0 Multiplicity = 6

                         Standard orientation:
 ---------------------------------------------------------------------
 Center     Atomic      Atomic             Coordinates (Angstroms)
 Number     Number       Type             X           Y           Z
 ---------------------------------------------------------------------
      1         25           0        0.000000    0.000000    0.412121
      2          8           0        0.000000    0.000000   -1.287879
 ---------------------------------------------------------------------

 SCF Done:  E(ROHF) =  -119.175509092     A.U. after   24 cycles
 E2 =    -0.9341367236D+00 EUMP2 =    -0.12010964581586D+03
 CCSD(T)
 CCSD(T)= -0.12013765592D+03

 The electronic state is 6-SG.
 Alpha  occ. eigenvalues --   -4.23031  -2.78717  -2.78717  -2.78048  -1.11999
 Alpha  occ. eigenvalues --   -0.64460  -0.64460  -0.63687  -0.63687  -0.59567
 Alpha  occ. eigenvalues --   -0.33890  -0.33890  -0.33815
 Alpha virt. eigenvalues --   -0.04588   0.01336   0.01336   0.01603   0.03379
 Alpha virt. eigenvalues --    0.05759   0.05759   0.05866   0.05866   0.06360
 Alpha virt. eigenvalues --    0.07070   0.07070   0.11368   0.12687   0.17844

 Mulliken charges and spin densities:
               1          2
     1  Mn   1.206473   4.906994
     2  O   -1.206473   0.093006
 Sum of Mulliken charges =  -0.00000   5.00000

 Dipole moment (field-independent basis, Debye):
    X=              0.0000    Y=              0.0000    Z=              9.1073  Tot=              9.1073
 Quadrupole moment (field-independent basis, Debye-Ang):
   XX=            -18.8763   YY=            -18.8763   ZZ=            -23.8496
   XY=              0.0000   XZ=              0.0000   YZ=              0.0000

 \\#P ROCCSD(T)=(maxcyc=150, Full, SaveAmplitudes, ReadAmplitudes)/Gen
 9.1755091\PMP2-0=-120.1096458\CCSD=-120.0943708\CCSD(T)=-120.1376559\R
 Normal termination of Gaussian 16 at Wed Mar 14 06:37:11 2018.
