 Gaussian 16, Revision A.03,
 Gaussian 16:  ES64L-G16RevA.03 25-Dec-2016

 ----------------------------------------------------------------------
 #P ROCCSD(T)=(maxcyc=150, Full, SaveAmplitudes, ReadAmplitudes)/Gen 5d
  7f SCF=(maxcycles=300, VShift=400) Integral(NoXCTest) MaxDisk=500GB P
 op=Full Pseudo=Read Guess=Read IOp(5/15=2)
 ----------------------------------------------------------------------

 ---
 CrO
 ---
 Symbolic Z-matrix:
 Charge =  0 Multiplicity = 5

                         Standard orientation:
 ---------------------------------------------------------------------
 Center     Atomic      Atomic             Coordinates (Angstroms)
 Number     Number       Type             X           Y           Z
 ---------------------------------------------------------------------
      1         24           0        0.000000    0.000000    0.400000
      2          8           0        0.000000    0.000000   -1.200000
 ---------------------------------------------------------------------

 SCF Done:  E(ROHF) =  -101.711245138     A.U. after   39 cycles
 E2 =    -0.8822071940D+00 EUMP2 =    -0.10259345233176D+03
 CCSD(T)
 CCSD(T)= -0.10262041403D+03

 Unable to determine electronic state:  an orbital has unidentified symmetry.
 Alpha  occ. eigenvalues --   -3.74296  -2.50392  -2.46439  -2.43210  -1.17826
 Alpha  occ. eigenvalues --   -0.61855  -0.58403  -0.57160  -0.48043  -0.43140
 Alpha  occ. eigenvalues --   -0.38661  -0.31724
 Alpha virt. eigenvalues --   -0.00196   0.00580   0.01684   0.03180   0.03892
 Alpha virt. eigenvalues --    0.04505   0.06081   0.07570   0.07585   0.08064
 Alpha virt. eigenvalues --    0.08075   0.08464   0.13149   0.13500   0.15879

 Mulliken charges and spin densities:
               1          2
     1  Cr   1.074574   3.859056
     2  O   -1.074574   0.140944
 Sum of Mulliken charges =   0.00000   4.00000

 Dipole moment (field-independent basis, Debye):
    X=              0.0000    Y=              0.0000    Z=              6.1339  Tot=              6.1339
 Quadrupole moment (field-independent basis, Debye-Ang):
   XX=            -20.6645   YY=            -19.5772   ZZ=            -24.0021
   XY=              0.0000   XZ=              0.0000   YZ=              0.0000

 \\#P ROCCSD(T)=(maxcyc=150, Full, SaveAmplitudes, ReadAmplitudes)/Gen
 027972\CCSD=-102.5700001\CCSD(T)=-102.620414\RMSD=9.344e-09\PG=C*V [C*
 Normal termination of Gaussian 16 at Thu Apr 19 07:57:52 2018.
