 Gaussian 16, Revision A.03,
 Gaussian 16:  ES64L-G16RevA.03 25-Dec-2016

 ----------------------------------------------------------------------
 #P ROCCSD(T)=(maxcyc=150, Full, SaveAmplitudes, ReadAmplitudes)/Gen 5d
  7f SCF=(maxcycles=300, VShift=400) Integral(NoXCTest) MaxDisk=500GB P
 op=Full Pseudo=Read Guess=Read IOp(5/15=2)
 ----------------------------------------------------------------------

 ---
 CrO
 ---
 Symbolic Z-matrix:
 Charge =  0 Multiplicity = 5

                         Standard orientation:
 ---------------------------------------------------------------------
 Center     Atomic      Atomic             Coordinates (Angstroms)
 Number     Number       Type             X           Y           Z
 ---------------------------------------------------------------------
      1         24           0        0.000000    0.000000    0.325000
      2          8           0        0.000000    0.000000   -0.975000
 ---------------------------------------------------------------------

 SCF Done:  E(ROHF) =  -101.769087320     A.U. after   55 cycles
 E2 =    -0.8788486510D+00 EUMP2 =    -0.10264793597090D+03
 CCSD(T)
 CCSD(T)= -0.10266039966D+03

 Unable to determine electronic state:  an orbital has unidentified symmetry.
 Alpha  occ. eigenvalues --   -3.73224  -2.48140  -2.46915  -2.43934  -1.25594
 Alpha  occ. eigenvalues --   -0.69021  -0.60054  -0.59745  -0.51423  -0.51055
 Alpha  occ. eigenvalues --   -0.35379  -0.27161
 Alpha virt. eigenvalues --    0.01340   0.02321   0.02464   0.02874   0.05246
 Alpha virt. eigenvalues --    0.06581   0.07311   0.07737   0.07741   0.07887
 Alpha virt. eigenvalues --    0.08735   0.09832   0.12244   0.17158   0.19304

 Mulliken charges and spin densities:
               1          2
     1  Cr   0.904557   3.767257
     2  O   -0.904557   0.232743
 Sum of Mulliken charges =  -0.00000   4.00000

 Dipole moment (field-independent basis, Debye):
    X=              0.0000    Y=              0.0000    Z=              1.7469  Tot=              1.7469
 Quadrupole moment (field-independent basis, Debye-Ang):
   XX=            -21.4937   YY=            -19.7905   ZZ=            -23.6152
   XY=              0.0000   XZ=              0.0000   YZ=              0.0000

 \\#P ROCCSD(T)=(maxcyc=150, Full, SaveAmplitudes, ReadAmplitudes)/Gen
 2203\CCSD=-102.6188355\CCSD(T)=-102.6603997\RMSD=7.737e-09\PG=C*V [C*(
 Normal termination of Gaussian 16 at Sat Mar 31 19:00:35 2018.
