 Gaussian 16, Revision A.03,
 Gaussian 16:  ES64L-G16RevA.03 25-Dec-2016

 ----------------------------------------------------------------------
 #P ROCCSD(T)=(MaxCyc=150, FrzINGC)/Gen SCF=(maxcycle=400) Integral(DKH
 SO, NoXCTest) Pop=Regular MaxDisk=500GB
 ----------------------------------------------------------------------

 --
 Zn
 --
 Symbolic Z-matrix:
 Charge =  0 Multiplicity = 1

                         Standard orientation:
 ---------------------------------------------------------------------
 Center     Atomic      Atomic             Coordinates (Angstroms)
 Number     Number       Type             X           Y           Z
 ---------------------------------------------------------------------
      1         30           0        0.000000    0.000000    0.000000
 ---------------------------------------------------------------------

 SCF Done:  E(ROHF) =  -1794.27818503     A.U. after   10 cycles
 E2 =    -0.1087388518D+01 EUMP2 =    -0.17953655735466D+04
 CCSD(T)
 CCSD(T)= -0.17952941197D+04

 Unable to determine electronic state:  an orbital has unidentified symmetry.
 Alpha  occ. eigenvalues -- -357.56357 -45.33001 -39.13222 -39.13222 -39.13222
 Alpha  occ. eigenvalues --   -5.79783  -3.87557  -3.87557  -3.87557  -0.76142
 Alpha  occ. eigenvalues --   -0.76142  -0.76142  -0.76142  -0.76142  -0.29854
 Alpha virt. eigenvalues --    0.02491   0.02491   0.02491   0.03247   0.07911
 Alpha virt. eigenvalues --    0.07911   0.07911   0.17609   0.19090   0.19090
 Alpha virt. eigenvalues --    0.19090   0.19090   0.19090   0.25710   0.25710

 Mulliken charges and spin densities:
               1          2
     1  Zn  -0.000000  -0.000000
 Sum of Mulliken charges =  -0.00000  -0.00000

 Dipole moment (field-independent basis, Debye):
    X=             -0.0000    Y=             -0.0000    Z=              0.0000  Tot=              0.0000
 Quadrupole moment (field-independent basis, Debye-Ang):
   XX=            -15.4215   YY=            -15.4215   ZZ=            -15.4215
   XY=              0.0000   XZ=             -0.0000   YZ=             -0.0000

 OCCSD(T)=(MaxCyc=150, FrzINGC)/Gen SCF=(maxcycle=400) Integral(DKHSO,
 CSD=-1795.2645221\CCSD(T)=-1795.2941197\RMSD=4.270e-09\PG=OH [O(Zn1)]\
 Normal termination of Gaussian 16 at Sun Apr 22 22:16:41 2018.
