 Gaussian 16, Revision A.03,
 Gaussian 16:  ES64L-G16RevA.03 25-Dec-2016

 ----------------------------------------------------------------------
 #P ROCCSD(T)=(maxcyc=150, Full)/Gen 5d 7f SCF=(maxcycles=300) Integral
 (NoXCTest) MaxDisk=500GB Pop=Regular Pseudo=Read IOp(5/15=2) Guess=Rea
 d
 ----------------------------------------------------------------------

 ---
 ScH
 ---
 Symbolic Z-matrix:
 Charge =  0 Multiplicity = 1

                         Standard orientation:
 ---------------------------------------------------------------------
 Center     Atomic      Atomic             Coordinates (Angstroms)
 Number     Number       Type             X           Y           Z
 ---------------------------------------------------------------------
      1         21           0        0.000000    0.000000    0.054545
      2          1           0        0.000000    0.000000   -1.145455
 ---------------------------------------------------------------------

 SCF Done:  E(ROHF) =  -46.4804526148     A.U. after   12 cycles
 E2 =    -0.4164280028D+00 EUMP2 =    -0.46896880617614D+02
 CCSD(T)
 CCSD(T)= -0.46935867599D+02

 The electronic state is 1-SG.
 Alpha  occ. eigenvalues --   -2.62317  -1.63745  -1.59076  -1.59076  -0.46893
 Alpha  occ. eigenvalues --   -0.21455
 Alpha virt. eigenvalues --    0.01388   0.01388   0.01463   0.02237   0.03471
 Alpha virt. eigenvalues --    0.03911   0.03911   0.03948   0.03948   0.04900
 Alpha virt. eigenvalues --    0.04963   0.04963   0.09327   0.10617   0.10617

 Mulliken charges and spin densities:
               1          2
     1  Sc   0.501927   0.000000
     2  H   -0.501927   0.000000
 Sum of Mulliken charges =   0.00000   0.00000

 Dipole moment (field-independent basis, Debye):
    X=              0.0000    Y=              0.0000    Z=              0.7783  Tot=              0.7783
 Quadrupole moment (field-independent basis, Debye-Ang):
   XX=            -23.7032   YY=            -23.7032   ZZ=            -22.5676
   XY=              0.0000   XZ=              0.0000   YZ=              0.0000

 P ROCCSD(T)=(maxcyc=150, Full)/Gen 5d 7f SCF=(maxcycles=300) Integral(
 PMP2-0=-46.8968806\MP4SDQ=-46.9189555\CCSD=-46.9184527\CCSD(T)=-46.935
 Normal termination of Gaussian 16 at Tue Feb 13 18:40:54 2018.
