 Gaussian 16, Revision A.03,
 Gaussian 16:  ES64L-G16RevA.03 25-Dec-2016

 ----------------------------------------------------------------------
 #P ROCCSD(T)=(maxcyc=150, Full)/Gen 5d 7f SCF=(maxcycles=300) Integral
 (NoXCTest) MaxDisk=500GB Pop=Regular Pseudo=Read IOp(5/15=2) Guess=Rea
 d
 ----------------------------------------------------------------------

 ---
 ScH
 ---
 Symbolic Z-matrix:
 Charge =  0 Multiplicity = 1

                         Standard orientation:
 ---------------------------------------------------------------------
 Center     Atomic      Atomic             Coordinates (Angstroms)
 Number     Number       Type             X           Y           Z
 ---------------------------------------------------------------------
      1         21           0        0.000000    0.000000    0.072727
      2          1           0        0.000000    0.000000   -1.527273
 ---------------------------------------------------------------------

 SCF Done:  E(ROHF) =  -46.5904939687     A.U. after    1 cycles
 E2 =    -0.4091168604D+00 EUMP2 =    -0.46999610829125D+02
 CCSD(T)
 CCSD(T)= -0.47042481364D+02

 The electronic state is 1-SG.
 Alpha  occ. eigenvalues --   -2.67563  -1.65041  -1.64535  -1.64535  -0.42960
 Alpha  occ. eigenvalues --   -0.22567
 Alpha virt. eigenvalues --    0.01255   0.01255   0.01640   0.02169   0.03526
 Alpha virt. eigenvalues --    0.03880   0.03880   0.03918   0.03918   0.04698
 Alpha virt. eigenvalues --    0.04698   0.04956   0.09084   0.09084   0.09418

 Mulliken charges and spin densities:
               1          2
     1  Sc   0.393850   0.000000
     2  H   -0.393850   0.000000
 Sum of Mulliken charges =  -0.00000   0.00000

 Dipole moment (field-independent basis, Debye):
    X=              0.0000    Y=              0.0000    Z=              0.9839  Tot=              0.9839
 Quadrupole moment (field-independent basis, Debye-Ang):
   XX=            -23.2752   YY=            -23.2752   ZZ=            -25.2974
   XY=              0.0000   XZ=              0.0000   YZ=              0.0000

 P ROCCSD(T)=(maxcyc=150, Full)/Gen 5d 7f SCF=(maxcycles=300) Integral(
 P2-0=-46.9996108\MP4SDQ=-47.0250048\CCSD=-47.0245436\CCSD(T)=-47.04248
 Normal termination of Gaussian 16 at Wed Feb 14 01:21:31 2018.
