 Gaussian 16, Revision A.03,
 Gaussian 16:  ES64L-G16RevA.03 25-Dec-2016

 ----------------------------------------------------------------------
 #P ROCCSD(T)=(maxcyc=150, Full, SaveAmplitudes, ReadAmplitudes)/Gen 5d
  7f SCF=(maxcycles=300, VShift=400) Integral(NoXCTest) MaxDisk=500GB P
 op=Full Pseudo=Read Guess=Read
 ----------------------------------------------------------------------

 ---
 MnH
 ---
 Symbolic Z-matrix:
 Charge =  0 Multiplicity = 7

                         Standard orientation:
 ---------------------------------------------------------------------
 Center     Atomic      Atomic             Coordinates (Angstroms)
 Number     Number       Type             X           Y           Z
 ---------------------------------------------------------------------
      1         25           0        0.000000    0.000000    0.057692
      2          1           0        0.000000    0.000000   -1.442308
 ---------------------------------------------------------------------

 SCF Done:  E(ROHF) =  -104.237688513     A.U. after   24 cycles
 E2 =    -0.6105751503D+00 EUMP2 =    -0.10484826366314D+03
 CCSD(T)
 CCSD(T)= -0.10486864717D+03

 The electronic state is 7-SG.
 Alpha  occ. eigenvalues --   -4.13561  -2.76308  -2.76259  -2.76259  -0.65499
 Alpha  occ. eigenvalues --   -0.64706  -0.64706  -0.64155  -0.64155  -0.41823
 Alpha  occ. eigenvalues --   -0.25244
 Alpha virt. eigenvalues --    0.01290   0.01290   0.02069   0.03017   0.05154
 Alpha virt. eigenvalues --    0.05154   0.05674   0.05821   0.05821   0.06192
 Alpha virt. eigenvalues --    0.06192   0.08700   0.13838   0.14440   0.18007

 Mulliken charges and spin densities:
               1          2
     1  Mn   0.376594   5.939508
     2  H   -0.376594   0.060492
 Sum of Mulliken charges =  -0.00000   6.00000

 Dipole moment (field-independent basis, Debye):
    X=              0.0000    Y=              0.0000    Z=              0.6275  Tot=              0.6275
 Quadrupole moment (field-independent basis, Debye-Ang):
   XX=            -15.9666   YY=            -15.9666   ZZ=            -25.6378
   XY=              0.0000   XZ=              0.0000   YZ=              0.0000

 \\#P ROCCSD(T)=(maxcyc=150, Full, SaveAmplitudes, ReadAmplitudes)/Gen
 \PUHF=-104.2376885\PMP2-0=-104.8482637\CCSD=-104.8515933\CCSD(T)=-104.
 Normal termination of Gaussian 16 at Wed Apr  4 07:23:55 2018.
