 Gaussian 16, Revision A.03,
 Gaussian 16:  ES64L-G16RevA.03 25-Dec-2016

 ----------------------------------------------------------------------
 #P ROCCSD(T)=(maxcyc=100, Full)/Gen SCF=(maxcycle=400, symm) Pseudo=Re
 ad Integral(NoXCTest) Pop=Regular MaxDisk=500GB Guess=Permute IOp(5/15
 =2)
 ----------------------------------------------------------------------

 ---
 FeH
 ---
 Symbolic Z-matrix:
 Charge =  0 Multiplicity = 4

                         Standard orientation:
 ---------------------------------------------------------------------
 Center     Atomic      Atomic             Coordinates (Angstroms)
 Number     Number       Type             X           Y           Z
 ---------------------------------------------------------------------
      1         26           0        0.000000    0.000000    0.059259
      2          1           0        0.000000    0.000000   -1.540741
 ---------------------------------------------------------------------

 SCF Done:  E(ROHF) =  -123.589012817     A.U. after   25 cycles
 E2 =    -0.8097006004D+00 EUMP2 =    -0.12439871341762D+03
 CCSD(T)
 CCSD(T)= -0.12440424731D+03

 Unable to determine electronic state:  an orbital has unidentified symmetry.
 Alpha  occ. eigenvalues --   -4.17747  -2.76077  -2.75442  -2.75442  -0.49870
 Alpha  occ. eigenvalues --   -0.49870  -0.49091  -0.44444  -0.43990  -0.31874
 Alpha virt. eigenvalues --   -0.00494   0.02191   0.02191   0.02938   0.03868
 Alpha virt. eigenvalues --    0.06228   0.06780   0.06793   0.06856   0.06856
 Alpha virt. eigenvalues --    0.07686   0.07686   0.09871   0.16329   0.17881

 Mulliken charges and spin densities:
               1          2
     1  Fe   0.325469   2.996765
     2  H   -0.325469   0.003235
 Sum of Mulliken charges =  -0.00000   3.00000

 Dipole moment (field-independent basis, Debye):
    X=              0.0000    Y=              0.0000    Z=              4.4205  Tot=              4.4205
 Quadrupole moment (field-independent basis, Debye-Ang):
   XX=            -15.5799   YY=            -15.5799   ZZ=            -17.4052
   XY=              0.0000   XZ=              0.0000   YZ=              0.0000

 \\#P ROCCSD(T)=(maxcyc=100, Full)/Gen SCF=(maxcycle=400, symm) Pseudo=
 3750956\CCSD(T)=-124.4042473\RMSD=9.352e-09\PG=C*V [C*(H1Fe1)]\\@
 Normal termination of Gaussian 16 at Mon Feb 12 21:03:05 2018.
