 Gaussian 16, Revision A.03,
 Gaussian 16:  ES64L-G16RevA.03 25-Dec-2016

 ----------------------------------------------------------------------
 #P ROCCSD(T)=(maxcyc=100, Full)/Gen SCF=(maxcycle=400, symm) Pseudo=Re
 ad Integral(NoXCTest) Pop=Regular MaxDisk=500GB Guess=Permute IOp(5/15
 =2)
 ----------------------------------------------------------------------

 ---
 FeH
 ---
 Symbolic Z-matrix:
 Charge =  0 Multiplicity = 4

                         Standard orientation:
 ---------------------------------------------------------------------
 Center     Atomic      Atomic             Coordinates (Angstroms)
 Number     Number       Type             X           Y           Z
 ---------------------------------------------------------------------
      1         26           0        0.000000    0.000000    0.059259
      2          1           0        0.000000    0.000000   -1.540741
 ---------------------------------------------------------------------

 SCF Done:  E(ROHF) =  -123.587903609     A.U. after   30 cycles
 E2 =    -0.7741637019D+00 EUMP2 =    -0.12436206731093D+03
 CCSD(T)
 CCSD(T)= -0.12436978764D+03

 Unable to determine electronic state:  an orbital has unidentified symmetry.
 Alpha  occ. eigenvalues --   -4.17798  -2.76099  -2.75462  -2.75462  -0.49867
 Alpha  occ. eigenvalues --   -0.49867  -0.49086  -0.44435  -0.43984  -0.31871
 Alpha virt. eigenvalues --   -0.00478   0.02424   0.02424   0.03216   0.04135
 Alpha virt. eigenvalues --    0.08389   0.08389   0.09571   0.10220   0.10260
 Alpha virt. eigenvalues --    0.10385   0.10385   0.10765   0.17101   0.23699

 Mulliken charges and spin densities:
               1          2
     1  Fe   0.427702   2.996751
     2  H   -0.427702   0.003249
 Sum of Mulliken charges =   0.00000   3.00000

 Dipole moment (field-independent basis, Debye):
    X=              0.0000    Y=              0.0000    Z=              4.4249  Tot=              4.4249
 Quadrupole moment (field-independent basis, Debye-Ang):
   XX=            -15.5951   YY=            -15.5951   ZZ=            -17.3958
   XY=              0.0000   XZ=              0.0000   YZ=              0.0000

 \\#P ROCCSD(T)=(maxcyc=100, Full)/Gen SCF=(maxcycle=400, symm) Pseudo=
 3425859\CCSD(T)=-124.3697876\RMSD=6.436e-09\PG=C*V [C*(H1Fe1)]\\@
 Normal termination of Gaussian 16 at Mon Feb 12 20:23:49 2018.
