 Gaussian 16, Revision A.03,
 Gaussian 16:  ES64L-G16RevA.03 25-Dec-2016

 ----------------------------------------------------------------------
 #P ROCCSD(T)=(maxcyc=100, Full)/Gen SCF=(maxcycle=400, symm) Pseudo=Re
 ad Integral(NoXCTest) Pop=Regular MaxDisk=500GB Guess=Permute IOp(5/15
 =2)
 ----------------------------------------------------------------------

 ---
 FeH
 ---
 Symbolic Z-matrix:
 Charge =  0 Multiplicity = 4

                         Standard orientation:
 ---------------------------------------------------------------------
 Center     Atomic      Atomic             Coordinates (Angstroms)
 Number     Number       Type             X           Y           Z
 ---------------------------------------------------------------------
      1         26           0        0.000000    0.000000    0.059259
      2          1           0        0.000000    0.000000   -1.540741
 ---------------------------------------------------------------------

 SCF Done:  E(ROHF) =  -123.589580449     A.U. after   34 cycles
 E2 =    -0.8238765217D+00 EUMP2 =    -0.12441345697055D+03
 CCSD(T)
 CCSD(T)= -0.12441689422D+03

 Unable to determine electronic state:  an orbital has unidentified symmetry.
 Alpha  occ. eigenvalues --   -4.17765  -2.76072  -2.75437  -2.75437  -0.49867
 Alpha  occ. eigenvalues --   -0.49867  -0.49088  -0.44447  -0.43991  -0.31875
 Alpha virt. eigenvalues --   -0.00520   0.02124   0.02124   0.02616   0.03340
 Alpha virt. eigenvalues --    0.05776   0.06209   0.06220   0.06343   0.06343
 Alpha virt. eigenvalues --    0.07332   0.07332   0.08635   0.12908   0.16608

 Mulliken charges and spin densities:
               1          2
     1  Fe   0.284374   2.995851
     2  H   -0.284374   0.004149
 Sum of Mulliken charges =  -0.00000   3.00000

 Dipole moment (field-independent basis, Debye):
    X=              0.0000    Y=              0.0000    Z=              4.4198  Tot=              4.4198
 Quadrupole moment (field-independent basis, Debye-Ang):
   XX=            -15.5775   YY=            -15.5775   ZZ=            -17.4076
   XY=              0.0000   XZ=              0.0000   YZ=              0.0000

 \\#P ROCCSD(T)=(maxcyc=100, Full)/Gen SCF=(maxcycle=400, symm) Pseudo=
 70574\CCSD(T)=-124.4168942\RMSD=7.269e-09\PG=C*V [C*(H1Fe1)]\\@
 Normal termination of Gaussian 16 at Mon Feb 12 22:49:52 2018.
