 Gaussian 16, Revision A.03,
 Gaussian 16:  ES64L-G16RevA.03 25-Dec-2016

 ----------------------------------------------------------------------
 #P ROCCSD(T)=(maxcyc=150, Full)/Gen 5d 7f SCF=(maxcycles=300) Integral
 (NoXCTest, DKHSO) MaxDisk=500GB Pop=Regular IOp(5/15=2) Guess=Read
 ----------------------------------------------------------------------

 ---
 ScH
 ---
 Symbolic Z-matrix:
 Charge =  0 Multiplicity = 1

                         Standard orientation:
 ---------------------------------------------------------------------
 Center     Atomic      Atomic             Coordinates (Angstroms)
 Number     Number       Type             X           Y           Z
 ---------------------------------------------------------------------
      1         21           0        0.000000    0.000000    0.086364
      2          1           0        0.000000    0.000000   -1.813636
 ---------------------------------------------------------------------

 SCF Done:  E(ROHF) =  -763.830636222     A.U. after   10 cycles
 E2 =    -0.7766178010D+00 EUMP2 =    -0.76460725402293D+03
 CCSD(T)
 CCSD(T)= -0.76464601425D+03

 The electronic state is 1-SG.
 Alpha  occ. eigenvalues -- -166.93372 -19.38987 -15.81319 -15.81319 -15.80536
 Alpha  occ. eigenvalues --   -2.69750  -1.67223  -1.67223  -1.67065  -0.39351
 Alpha  occ. eigenvalues --   -0.23621
 Alpha virt. eigenvalues --    0.01033   0.01033   0.01429   0.01981   0.02834
 Alpha virt. eigenvalues --    0.02834   0.02933   0.02933   0.02971   0.03972
 Alpha virt. eigenvalues --    0.03972   0.04118   0.06970   0.06970   0.07626

 Mulliken charges and spin densities:
               1          2
     1  Sc   0.260386   0.000000
     2  H   -0.260386   0.000000
 Sum of Mulliken charges =  -0.00000   0.00000

 Dipole moment (field-independent basis, Debye):
    X=              0.0000    Y=              0.0000    Z=              1.7436  Tot=              1.7436
 Quadrupole moment (field-independent basis, Debye-Ang):
   XX=            -23.4058   YY=            -23.4058   ZZ=            -28.2113
   XY=              0.0000   XZ=              0.0000   YZ=              0.0000

 P ROCCSD(T)=(maxcyc=150, Full)/Gen 5d 7f SCF=(maxcycles=300) Integral(
 P2-0=-764.607254\MP4SDQ=-764.6253163\CCSD=-764.6259735\CCSD(T)=-764.64
 Normal termination of Gaussian 16 at Mon Feb 12 21:37:24 2018.
