 Gaussian 16, Revision A.03,
 Gaussian 16:  ES64L-G16RevA.03 25-Dec-2016

 ----------------------------------------------------------------------
 #P ROCCSD(T)=(maxcyc=150, Full, SaveAmplitudes, ReadAmplitudes)/Gen 5d
  7f SCF=(maxcycles=300, VShift=400) Integral(NoXCTest) MaxDisk=500GB P
 op=Full Pseudo=Read Guess=Read
 ----------------------------------------------------------------------

 ---
 ScH
 ---
 Symbolic Z-matrix:
 Charge =  0 Multiplicity = 1

                         Standard orientation:
 ---------------------------------------------------------------------
 Center     Atomic      Atomic             Coordinates (Angstroms)
 Number     Number       Type             X           Y           Z
 ---------------------------------------------------------------------
      1         21           0        0.000000    0.000000    0.090909
      2          1           0        0.000000    0.000000   -1.909091
 ---------------------------------------------------------------------

 SCF Done:  E(ROHF) =  -46.6689038247     A.U. after   18 cycles
 E2 =    -0.4188521400D+00 EUMP2 =    -0.47087755964761D+02
 CCSD(T)
 CCSD(T)= -0.47133844537D+02

 The electronic state is 1-SG.
 Alpha  occ. eigenvalues --   -2.70244  -1.68664  -1.68664  -1.68468  -0.38010
 Alpha  occ. eigenvalues --   -0.23915
 Alpha virt. eigenvalues --    0.00970   0.00970   0.01250   0.02029   0.02823
 Alpha virt. eigenvalues --    0.02823   0.02943   0.02943   0.02995   0.03834
 Alpha virt. eigenvalues --    0.03894   0.03894   0.06697   0.06697   0.07496

 Mulliken charges and spin densities:
               1          2
     1  Sc   0.263763   0.000000
     2  H   -0.263763   0.000000
 Sum of Mulliken charges =  -0.00000   0.00000

 Dipole moment (field-independent basis, Debye):
    X=              0.0000    Y=              0.0000    Z=              2.1861  Tot=              2.1861
 Quadrupole moment (field-independent basis, Debye-Ang):
   XX=            -22.9443   YY=            -22.9443   ZZ=            -28.3823
   XY=              0.0000   XZ=              0.0000   YZ=              0.0000

 P ROCCSD(T)=(maxcyc=150, Full, SaveAmplitudes, ReadAmplitudes)/Gen 5d
 46.6689038\PMP2-0=-47.087756\CCSD=-47.1139024\CCSD(T)=-47.1338445\RMSD
 Normal termination of Gaussian 16 at Thu Apr 19 08:10:31 2018.
