 Gaussian 16, Revision A.03,
 Gaussian 16:  ES64L-G16RevA.03 25-Dec-2016

 ----------------------------------------------------------------------
 #P ROCCSD(T)=(maxcyc=150, Full, SaveAmplitudes, ReadAmplitudes)/Gen 5d
  7f SCF=(maxcycles=300, VShift=400) Integral(NoXCTest) MaxDisk=500GB P
 op=Full Pseudo=Read Guess=Read
 ----------------------------------------------------------------------

 ---
 ScH
 ---
 Symbolic Z-matrix:
 Charge =  0 Multiplicity = 1

                         Standard orientation:
 ---------------------------------------------------------------------
 Center     Atomic      Atomic             Coordinates (Angstroms)
 Number     Number       Type             X           Y           Z
 ---------------------------------------------------------------------
      1         21           0        0.000000    0.000000    0.095455
      2          1           0        0.000000    0.000000   -2.004545
 ---------------------------------------------------------------------

 SCF Done:  E(ROHF) =  -46.6624582457     A.U. after   17 cycles
 E2 =    -0.4180916137D+00 EUMP2 =    -0.47080549859439D+02
 CCSD(T)
 CCSD(T)= -0.47127815155D+02

 The electronic state is 1-SG.
 Alpha  occ. eigenvalues --   -2.70982  -1.69361  -1.69361  -1.69150  -0.36826
 Alpha  occ. eigenvalues --   -0.24260
 Alpha virt. eigenvalues --    0.00899   0.00899   0.01115   0.02060   0.02809
 Alpha virt. eigenvalues --    0.02809   0.02951   0.02951   0.03022   0.03638
 Alpha virt. eigenvalues --    0.03811   0.03811   0.06419   0.06419   0.07335

 Mulliken charges and spin densities:
               1          2
     1  Sc   0.265472   0.000000
     2  H   -0.265472   0.000000
 Sum of Mulliken charges =  -0.00000   0.00000

 Dipole moment (field-independent basis, Debye):
    X=              0.0000    Y=              0.0000    Z=              2.5735  Tot=              2.5735
 Quadrupole moment (field-independent basis, Debye-Ang):
   XX=            -22.9067   YY=            -22.9067   ZZ=            -29.2135
   XY=              0.0000   XZ=              0.0000   YZ=              0.0000

 P ROCCSD(T)=(maxcyc=150, Full, SaveAmplitudes, ReadAmplitudes)/Gen 5d
 =-46.6624582\PMP2-0=-47.0805499\CCSD=-47.1074929\CCSD(T)=-47.1278152\R
 Normal termination of Gaussian 16 at Thu Apr 19 08:12:22 2018.
