 Gaussian 16, Revision A.03,
 Gaussian 16:  ES64L-G16RevA.03 25-Dec-2016

 ----------------------------------------------------------------------
 #P ROCCSD(T)=(maxcyc=150, Full)/Gen 5d 7f SCF=(maxcycles=300) Integral
 (NoXCTest, DKHSO) MaxDisk=500GB Pop=Regular IOp(5/15=2) Guess=Read
 ----------------------------------------------------------------------

 ---
 CrH
 ---
 Symbolic Z-matrix:
 Charge =  0 Multiplicity = 6

                         Standard orientation:
 ---------------------------------------------------------------------
 Center     Atomic      Atomic             Coordinates (Angstroms)
 Number     Number       Type             X           Y           Z
 ---------------------------------------------------------------------
      1         24           0        0.000000    0.000000    0.088000
      2          1           0        0.000000    0.000000   -2.112000
 ---------------------------------------------------------------------

 SCF Done:  E(ROHF) =  -1050.18069362     A.U. after   25 cycles
 E2 =    -0.8978706562D+00 EUMP2 =    -0.10510785642777D+04
 CCSD(T)
 CCSD(T)= -0.10511223290D+04

 The electronic state is 6-SG.
 Alpha  occ. eigenvalues -- -222.25200 -26.84526 -22.47921 -22.47915 -22.47915
 Alpha  occ. eigenvalues --   -3.71685  -2.47101  -2.47101  -2.42698  -0.59409
 Alpha  occ. eigenvalues --   -0.59409  -0.55777  -0.55777  -0.36287  -0.27177
 Alpha virt. eigenvalues --    0.00801   0.00801   0.02086   0.02719   0.05051
 Alpha virt. eigenvalues --    0.05051   0.05081   0.07396   0.07396   0.07918
 Alpha virt. eigenvalues --    0.07918   0.09090   0.10596   0.16093   0.19761

 Mulliken charges and spin densities:
               1          2
     1  Cr   0.381808   4.971677
     2  H   -0.381808   0.028323
 Sum of Mulliken charges =   0.00000   5.00000

 Dipole moment (field-independent basis, Debye):
    X=              0.0000    Y=              0.0000    Z=              3.5819  Tot=              3.5819
 Quadrupole moment (field-independent basis, Debye-Ang):
   XX=            -17.7350   YY=            -17.7350   ZZ=            -29.2229
   XY=              0.0000   XZ=              0.0000   YZ=              0.0000

 \\#P ROCCSD(T)=(maxcyc=150, Full)/Gen 5d 7f SCF=(maxcycles=300) Integr
 Normal termination of Gaussian 16 at Tue Feb 13 18:02:51 2018.
