 Gaussian 16, Revision A.03,
 Gaussian 16:  ES64L-G16RevA.03 25-Dec-2016

 ----------------------------------------------------------------------
 #P ROCCSD(T)=(maxcyc=150, Window=(7,0), SaveAmplitudes, ReadAmplitudes
 )/Gen 5d 7f SCF=(maxcycles=300) Integral(NoXCTest, DKHSO) MaxDisk=500G
 B Pop=Regular Guess=Read
 ----------------------------------------------------------------------

 ---
 TiO
 ---
 Symbolic Z-matrix:
 Charge =  0 Multiplicity = 3

                         Standard orientation:
 ---------------------------------------------------------------------
 Center     Atomic      Atomic             Coordinates (Angstroms)
 Number     Number       Type             X           Y           Z
 ---------------------------------------------------------------------
      1         22           0        0.000000    0.000000    0.400000
      2          8           0        0.000000    0.000000   -1.100000
 ---------------------------------------------------------------------

 SCF Done:  E(ROHF) =  -927.705761356     A.U. after   22 cycles
 E2 =    -0.7496424258D+00 EUMP2 =    -0.92845540378136D+03
 CCSD(T)
 CCSD(T)= -0.92847606916D+03

 Unable to determine electronic state:  an orbital has unidentified symmetry.
 Alpha  occ. eigenvalues -- -184.41246 -21.67808 -20.51794 -17.84444 -17.84444
 Alpha  occ. eigenvalues --  -17.84349  -2.95770  -1.89055  -1.86510  -1.86510
 Alpha  occ. eigenvalues --   -1.15603  -0.48874  -0.48874  -0.48478  -0.41897
 Alpha  occ. eigenvalues --   -0.24897
 Alpha virt. eigenvalues --    0.00700   0.00700   0.01747   0.02356   0.03740
 Alpha virt. eigenvalues --    0.03801   0.03862   0.03862   0.04085   0.04192
 Alpha virt. eigenvalues --    0.04192   0.06083   0.09801   0.10464   0.11525

 Mulliken charges and spin densities:
               1          2
     1  Ti   0.983405   1.967917
     2  O   -0.983405   0.032083
 Sum of Mulliken charges =  -0.00000   2.00000

 Dipole moment (field-independent basis, Debye):
    X=              0.0000    Y=             -0.0000    Z=              3.0989  Tot=              3.0989
 Quadrupole moment (field-independent basis, Debye-Ang):
   XX=            -21.9591   YY=            -21.9591   ZZ=            -28.8555
   XY=              0.0000   XZ=              0.0000   YZ=             -0.0000

 1\1\GINC-C477-054\SP\ROCCSD(T)-RW\Gen\O1Ti1(3)\AANNABE\14-Mar-2018\0\\
 #P ROCCSD(T)=(maxcyc=150, Window=(7,0), SaveAmplitudes, ReadAmplitudes
 )/Gen 5d 7f SCF=(maxcycles=300) Integral(NoXCTest, DKHSO) MaxDisk=500G
 B Pop=Regular Guess=Read\\TiO\\0,3\Ti,0,0.,0.,0.\O,0,0.,0.,1.5\\Versio
 n=ES64L-G16RevA.03\HF=-927.7057614\MP2=-928.4554038\PUHF=-927.7057614\
 PMP2-0=-928.4554038\CCSD=-928.4351514\CCSD(T)=-928.4760692\RMSD=3.664e
 -10\PG=C*V [C*(O1Ti1)]\\@

 Normal termination of Gaussian 16 at Wed Mar 14 15:02:35 2018.
