 Gaussian 16, Revision A.03,
 Gaussian 16:  ES64L-G16RevA.03 25-Dec-2016

 ----------------------------------------------------------------------
 #P ROCCSD(T)=(maxcyc=150, Full, SaveAmplitudes, ReadAmplitudes)/Gen 5d
  7f SCF=(maxcycles=300, VShift=400) Integral(NoXCTest) MaxDisk=500GB P
 op=Full Pseudo=Read Guess=Read IOp(5/15=2)
 ----------------------------------------------------------------------

 ---
 MnO
 ---
 Symbolic Z-matrix:
 Charge =  0 Multiplicity = 6

                         Standard orientation:
 ---------------------------------------------------------------------
 Center     Atomic      Atomic             Coordinates (Angstroms)
 Number     Number       Type             X           Y           Z
 ---------------------------------------------------------------------
      1         25           0        0.000000    0.000000    0.412121
      2          8           0        0.000000    0.000000   -1.287879
 ---------------------------------------------------------------------

 SCF Done:  E(ROHF) =  -119.348504700     A.U. after   43 cycles
 E2 =    -0.8973321083D+00 EUMP2 =    -0.12024583680861D+03
 CCSD(T)
 CCSD(T)= -0.12027606853D+03

 The electronic state is 6-SG.
 Alpha  occ. eigenvalues --   -4.16511  -2.75574  -2.75574  -2.74995  -1.12021
 Alpha  occ. eigenvalues --   -0.65123  -0.65123  -0.64333  -0.64333  -0.60276
 Alpha  occ. eigenvalues --   -0.34006  -0.34006  -0.33820
 Alpha virt. eigenvalues --   -0.04505   0.01583   0.01583   0.01867   0.03841
 Alpha virt. eigenvalues --    0.06713   0.06713   0.08207   0.08441   0.08441
 Alpha virt. eigenvalues --    0.09616   0.09616   0.13213   0.14033   0.23110

 Mulliken charges and spin densities:
               1          2
     1  Mn   1.149618   4.896891
     2  O   -1.149618   0.103109
 Sum of Mulliken charges =  -0.00000   5.00000

 Dipole moment (field-independent basis, Debye):
    X=              0.0000    Y=              0.0000    Z=              9.0781  Tot=              9.0781
 Quadrupole moment (field-independent basis, Debye-Ang):
   XX=            -18.7558   YY=            -18.7558   ZZ=            -23.7810
   XY=              0.0000   XZ=              0.0000   YZ=              0.0000

 \\#P ROCCSD(T)=(maxcyc=150, Full, SaveAmplitudes, ReadAmplitudes)/Gen
 4SDQ=-120.24351\CCSD=-120.2347702\CCSD(T)=-120.2760685\RMSD=5.823e-09\
 Normal termination of Gaussian 16 at Sun Mar 18 19:05:42 2018.
