 Gaussian 16, Revision A.03,
 Gaussian 16:  ES64L-G16RevA.03 25-Dec-2016

 ----------------------------------------------------------------------
 #P ROCCSD(T)=(maxcyc=150, Full)/Gen 5d 7f SCF=(maxcycles=300) Integral
 (NoXCTest, DKHSO) MaxDisk=500GB Pop=Regular IOp(5/15=2) Guess=Read
 ----------------------------------------------------------------------

 ---
 ScH
 ---
 Symbolic Z-matrix:
 Charge =  0 Multiplicity = 1

                         Standard orientation:
 ---------------------------------------------------------------------
 Center     Atomic      Atomic             Coordinates (Angstroms)
 Number     Number       Type             X           Y           Z
 ---------------------------------------------------------------------
      1         21           0        0.000000    0.000000    0.059091
      2          1           0        0.000000    0.000000   -1.240909
 ---------------------------------------------------------------------

 SCF Done:  E(ROHF) =  -763.760927227     A.U. after   12 cycles
 E2 =    -0.8039496452D+00 EUMP2 =    -0.76456487687219D+03
 CCSD(T)
 CCSD(T)= -0.76459499638D+03

 The electronic state is 1-SG.
 Alpha  occ. eigenvalues -- -166.84690 -19.29357 -15.71741 -15.71741 -15.71070
 Alpha  occ. eigenvalues --   -2.62463  -1.62907  -1.60058  -1.60058  -0.46202
 Alpha  occ. eigenvalues --   -0.21698
 Alpha virt. eigenvalues --    0.01285   0.01285   0.01420   0.01683   0.02613
 Alpha virt. eigenvalues --    0.02613   0.02634   0.02634   0.02634   0.04115
 Alpha virt. eigenvalues --    0.04344   0.04344   0.07029   0.07415   0.07415

 Mulliken charges and spin densities:
               1          2
     1  Sc   0.340249   0.000000
     2  H   -0.340249   0.000000
 Sum of Mulliken charges =  -0.00000   0.00000

 Dipole moment (field-independent basis, Debye):
    X=              0.0000    Y=             -0.0000    Z=              0.5933  Tot=              0.5933
 Quadrupole moment (field-independent basis, Debye-Ang):
   XX=            -24.0074   YY=            -24.0074   ZZ=            -23.6657
   XY=              0.0000   XZ=              0.0000   YZ=              0.0000

 P ROCCSD(T)=(maxcyc=150, Full)/Gen 5d 7f SCF=(maxcycles=300) Integral(
 MP2-0=-764.5648769\MP4SDQ=-764.5757355\CCSD=-764.5754194\CCSD(T)=-764.
 Normal termination of Gaussian 16 at Tue Feb 13 20:15:24 2018.
