 Gaussian 16, Revision A.03,
 Gaussian 16:  ES64L-G16RevA.03 25-Dec-2016

 ----------------------------------------------------------------------
 #P ROCCSD(T)=(MaxCyc=150, Full)/Gen SCF=(maxcycle=400, vshift=200) Pse
 udo=Read Integral(NoXCTest) Pop=Regular MaxDisk=500GB Guess=Read IOp(5
 /15=2)
 ----------------------------------------------------------------------

 ---
 CuH
 ---
 Symbolic Z-matrix:
 Charge =  0 Multiplicity = 1

                         Standard orientation:
 ---------------------------------------------------------------------
 Center     Atomic      Atomic             Coordinates (Angstroms)
 Number     Number       Type             X           Y           Z
 ---------------------------------------------------------------------
      1         29           0        0.000000    0.000000    0.053333
      2          1           0        0.000000    0.000000   -1.546667
 ---------------------------------------------------------------------

 SCF Done:  E(ROHF) =  -195.891166689     A.U. after   11 cycles
 E2 =    -0.1132229473D+01 EUMP2 =    -0.19702339616130D+03
 CCSD(T)
 CCSD(T)= -0.19694374906D+03

 The electronic state is 1-SG.
 Alpha  occ. eigenvalues --   -5.22550  -3.39524  -3.39342  -3.39342  -0.49950
 Alpha  occ. eigenvalues --   -0.49711  -0.49711  -0.49707  -0.49707  -0.33745
 Alpha virt. eigenvalues --   -0.00058   0.02618   0.02618   0.03327   0.04835
 Alpha virt. eigenvalues --    0.08889   0.08938   0.08938   0.13436   0.13525
 Alpha virt. eigenvalues --    0.13525   0.13826   0.13826   0.19652   0.22020

 Mulliken charges and spin densities:
               1          2
     1  Cu   0.351181   0.000000
     2  H   -0.351181   0.000000
 Sum of Mulliken charges =  -0.00000   0.00000

 Dipole moment (field-independent basis, Debye):
    X=              0.0000    Y=              0.0000    Z=              4.1592  Tot=              4.1592
 Quadrupole moment (field-independent basis, Debye-Ang):
   XX=            -13.6700   YY=            -13.6700   ZZ=            -16.6235
   XY=              0.0000   XZ=              0.0000   YZ=              0.0000

 P ROCCSD(T)=(MaxCyc=150, Full)/Gen SCF=(maxcycle=400, vshift=200) Pseu
 Normal termination of Gaussian 16 at Sat May  5 21:58:33 2018.
