 Gaussian 16, Revision A.03,
 Gaussian 16:  ES64L-G16RevA.03 25-Dec-2016

 ----------------------------------------------------------------------
 #P ROCCSD(T)=(MaxCyc=150, Full)/Gen SCF=(maxcycle=400, vshift=200) Pse
 udo=Read Integral(NoXCTest) Pop=Regular MaxDisk=500GB Guess=Read IOp(5
 /15=2)
 ----------------------------------------------------------------------

 ---
 CuH
 ---
 Symbolic Z-matrix:
 Charge =  0 Multiplicity = 1

                         Standard orientation:
 ---------------------------------------------------------------------
 Center     Atomic      Atomic             Coordinates (Angstroms)
 Number     Number       Type             X           Y           Z
 ---------------------------------------------------------------------
      1         29           0        0.000000    0.000000    0.053333
      2          1           0        0.000000    0.000000   -1.546667
 ---------------------------------------------------------------------

 SCF Done:  E(ROHF) =  -195.891413974     A.U. after   10 cycles
 E2 =    -0.1157295932D+01 EUMP2 =    -0.19704870990558D+03
 CCSD(T)
 CCSD(T)= -0.19696686772D+03

 The electronic state is 1-SG.
 Alpha  occ. eigenvalues --   -5.22550  -3.39523  -3.39341  -3.39341  -0.49951
 Alpha  occ. eigenvalues --   -0.49713  -0.49713  -0.49709  -0.49709  -0.33746
 Alpha virt. eigenvalues --   -0.00115   0.02534   0.02534   0.03042   0.04101
 Alpha virt. eigenvalues --    0.07680   0.08572   0.08572   0.12147   0.12147
 Alpha virt. eigenvalues --    0.12177   0.12416   0.12416   0.15003   0.18524

 Mulliken charges and spin densities:
               1          2
     1  Cu   0.306165   0.000000
     2  H   -0.306165   0.000000
 Sum of Mulliken charges =  -0.00000   0.00000

 Dipole moment (field-independent basis, Debye):
    X=              0.0000    Y=              0.0000    Z=              4.1575  Tot=              4.1575
 Quadrupole moment (field-independent basis, Debye-Ang):
   XX=            -13.6685   YY=            -13.6685   ZZ=            -16.6264
   XY=              0.0000   XZ=              0.0000   YZ=              0.0000

 P ROCCSD(T)=(MaxCyc=150, Full)/Gen SCF=(maxcycle=400, vshift=200) Pseu
 Normal termination of Gaussian 16 at Sun May  6 00:50:25 2018.
