 Gaussian 16, Revision A.03,
 Gaussian 16:  ES64L-G16RevA.03 25-Dec-2016

 ----------------------------------------------------------------------
 #P ROCCSD(T)=(MaxCyc=150, Full)/Gen SCF=(maxcycle=400, vshift=200) Pse
 udo=Read Integral(NoXCTest) Pop=Regular MaxDisk=500GB Guess=Read IOp(5
 /15=2)
 ----------------------------------------------------------------------

 ---
 CuH
 ---
 Symbolic Z-matrix:
 Charge =  0 Multiplicity = 1

                         Standard orientation:
 ---------------------------------------------------------------------
 Center     Atomic      Atomic             Coordinates (Angstroms)
 Number     Number       Type             X           Y           Z
 ---------------------------------------------------------------------
      1         29           0        0.000000    0.000000    0.053333
      2          1           0        0.000000    0.000000   -1.546667
 ---------------------------------------------------------------------

 SCF Done:  E(ROHF) =  -195.888958232     A.U. after   16 cycles
 E2 =    -0.1080223429D+01 EUMP2 =    -0.19696918166103D+03
 CCSD(T)
 CCSD(T)= -0.19689091347D+03

 The electronic state is 1-SG.
 Alpha  occ. eigenvalues --   -5.22555  -3.39542  -3.39354  -3.39354  -0.49949
 Alpha  occ. eigenvalues --   -0.49705  -0.49705  -0.49698  -0.49698  -0.33741
 Alpha virt. eigenvalues --   -0.00045   0.02912   0.02912   0.03672   0.05180
 Alpha virt. eigenvalues --    0.10001   0.10312   0.10312   0.17164   0.19691
 Alpha virt. eigenvalues --    0.19691   0.20254   0.20254   0.20901   0.25915

 Mulliken charges and spin densities:
               1          2
     1  Cu   0.375974   0.000000
     2  H   -0.375974   0.000000
 Sum of Mulliken charges =  -0.00000   0.00000

 Dipole moment (field-independent basis, Debye):
    X=              0.0000    Y=              0.0000    Z=              4.1689  Tot=              4.1689
 Quadrupole moment (field-independent basis, Debye-Ang):
   XX=            -13.6806   YY=            -13.6806   ZZ=            -16.6060
   XY=              0.0000   XZ=              0.0000   YZ=              0.0000

 P ROCCSD(T)=(MaxCyc=150, Full)/Gen SCF=(maxcycle=400, vshift=200) Pseu
 Normal termination of Gaussian 16 at Sat May  5 21:03:07 2018.
