 Gaussian 16, Revision A.03,
 Gaussian 16:  ES64L-G16RevA.03 25-Dec-2016

 ----------------------------------------------------------------------
 #P ROCCSD(T)=(MaxCyc=150, FrzINGC)/Gen SCF=(maxcycle=400, vshift=200)
 Integral(DKHSO, NoXCTest) Pop=Regular MaxDisk=500GB Guess=Read IOp(5/1
 5=2)
 ----------------------------------------------------------------------

 ---
 CoH
 ---
 Symbolic Z-matrix:
 Charge =  0 Multiplicity = 3

                         Standard orientation:
 ---------------------------------------------------------------------
 Center     Atomic      Atomic             Coordinates (Angstroms)
 Number     Number       Type             X           Y           Z
 ---------------------------------------------------------------------
      1         27           0        0.000000    0.000000    0.039286
      2          1           0        0.000000    0.000000   -1.060714
 ---------------------------------------------------------------------

 SCF Done:  E(ROHF) =  -1392.24782718     A.U. after   46 cycles
 E2 =    -0.8960766943D+00 EUMP2 =    -0.13931439038722D+04
 CCSD(T)
 CCSD(T)= -0.13931018120D+04

 Unable to determine electronic state:  an orbital has unidentified symmetry.
 Alpha  occ. eigenvalues -- -285.60105 -35.29570 -30.06467 -30.06466 -30.06176
 Alpha  occ. eigenvalues --   -4.50896  -2.94757  -2.93894  -2.93894  -0.53295
 Alpha  occ. eigenvalues --   -0.49332  -0.46368  -0.46368  -0.44979  -0.29525
 Alpha virt. eigenvalues --    0.01150   0.02675   0.02675   0.02994   0.06222
 Alpha virt. eigenvalues --    0.09126   0.09126   0.10186   0.11437   0.11458
 Alpha virt. eigenvalues --    0.11458   0.11477   0.11548   0.18702   0.26849

 Mulliken charges and spin densities:
               1          2
     1  Co   0.273488   1.983662
     2  H   -0.273488   0.016338
 Sum of Mulliken charges =  -0.00000   2.00000

 Dipole moment (field-independent basis, Debye):
    X=              0.0000    Y=              0.0000    Z=              3.1853  Tot=              3.1853
 Quadrupole moment (field-independent basis, Debye-Ang):
   XX=            -14.4317   YY=            -14.4316   ZZ=            -16.0683
   XY=              0.0000   XZ=              0.0000   YZ=              0.0000

 \#P ROCCSD(T)=(MaxCyc=150, FrzINGC)/Gen SCF=(maxcycle=400, vshift=200)
 Normal termination of Gaussian 16 at Sun Apr 22 01:35:51 2018.
