 Gaussian 16, Revision A.03,
 Gaussian 16:  ES64L-G16RevA.03 25-Dec-2016

 ----------------------------------------------------------------------
 #P ROCCSD(T)=(maxcyc=150, Full, SaveAmplitudes, ReadAmplitudes)/Gen 5d
  7f SCF=(maxcycles=300) Integral(NoXCTest) MaxDisk=500GB Pop=Regular P
 seudo=Read Guess=Read
 ----------------------------------------------------------------------

 ---
 TiO
 ---
 Symbolic Z-matrix:
 Charge =  0 Multiplicity = 3

                         Standard orientation:
 ---------------------------------------------------------------------
 Center     Atomic      Atomic             Coordinates (Angstroms)
 Number     Number       Type             X           Y           Z
 ---------------------------------------------------------------------
      1         22           0        0.000000    0.000000    0.506667
      2          8           0        0.000000    0.000000   -1.393333
 ---------------------------------------------------------------------

 SCF Done:  E(ROHF) =  -73.4686281887     A.U. after   22 cycles
 E2 =    -0.7930811716D+00 EUMP2 =    -0.74261709360336D+02
 CCSD(T)
 CCSD(T)= -0.74297463234D+02

 Unable to determine electronic state:  an orbital has unidentified symmetry.
 Alpha  occ. eigenvalues --   -3.11404  -1.96904  -1.96904  -1.92212  -1.12337
 Alpha  occ. eigenvalues --   -0.52225  -0.41466  -0.37355  -0.37355  -0.29857
 Alpha virt. eigenvalues --   -0.01018  -0.01018   0.00063   0.01799   0.02838
 Alpha virt. eigenvalues --    0.02838   0.03207   0.03501   0.03670   0.04396
 Alpha virt. eigenvalues --    0.04396   0.04773   0.06479   0.09704   0.09820

 Mulliken charges and spin densities:
               1          2
     1  Ti   1.020582   1.978247
     2  O   -1.020582   0.021753
 Sum of Mulliken charges =  -0.00000   2.00000

 Dipole moment (field-independent basis, Debye):
    X=              0.0000    Y=              0.0000    Z=              6.9900  Tot=              6.9900
 Quadrupole moment (field-independent basis, Debye-Ang):
   XX=            -21.6698   YY=            -21.6698   ZZ=            -30.8886
   XY=              0.0000   XZ=              0.0000   YZ=              0.0000

 \\#P ROCCSD(T)=(maxcyc=150, Full, SaveAmplitudes, ReadAmplitudes)/Gen
 -0=-74.2617094\CCSD=-74.2386748\CCSD(T)=-74.2974632\RMSD=5.841e-09\PG=
 Normal termination of Gaussian 16 at Tue Mar 13 02:42:29 2018.
