 Gaussian 16, Revision A.03,
 Gaussian 16:  ES64L-G16RevA.03 25-Dec-2016

 ----------------------------------------------------------------------
 #P ROCCSD(T)=(maxcyc=100, Full)/Gen SCF=(maxcycle=400, symm) Pseudo=Re
 ad Integral(NoXCTest) Pop=Regular MaxDisk=500GB Guess=Permute IOp(5/15
 =2)
 ----------------------------------------------------------------------

 ---
 FeH
 ---
 Symbolic Z-matrix:
 Charge =  0 Multiplicity = 4

                         Standard orientation:
 ---------------------------------------------------------------------
 Center     Atomic      Atomic             Coordinates (Angstroms)
 Number     Number       Type             X           Y           Z
 ---------------------------------------------------------------------
      1         26           0        0.000000    0.000000    0.040741
      2          1           0        0.000000    0.000000   -1.059259
 ---------------------------------------------------------------------

 SCF Done:  E(ROHF) =  -123.487380790     A.U. after   31 cycles
 E2 =    -0.7771891730D+00 EUMP2 =    -0.12426456996298D+03
 CCSD(T)
 CCSD(T)= -0.12425932385D+03

 Unable to determine electronic state:  an orbital has unidentified symmetry.
 Alpha  occ. eigenvalues --   -4.35991  -2.85726  -2.82267  -2.82267  -0.58842
 Alpha  occ. eigenvalues --   -0.57287  -0.57287  -0.54177  -0.49293  -0.30173
 Alpha virt. eigenvalues --    0.00754   0.02457   0.02457   0.02759   0.04958
 Alpha virt. eigenvalues --    0.08186   0.08186   0.09521   0.10200   0.10200
 Alpha virt. eigenvalues --    0.10335   0.10367   0.10537   0.16338   0.25485

 Mulliken charges and spin densities:
               1          2
     1  Fe   0.220466   2.986954
     2  H   -0.220466   0.013046
 Sum of Mulliken charges =  -0.00000   3.00000

 Dipole moment (field-independent basis, Debye):
    X=              0.0000    Y=              0.0000    Z=              2.6884  Tot=              2.6884
 Quadrupole moment (field-independent basis, Debye-Ang):
   XX=            -16.8656   YY=            -16.8656   ZZ=            -15.7924
   XY=              0.0000   XZ=              0.0000   YZ=              0.0000

 \\#P ROCCSD(T)=(maxcyc=100, Full)/Gen SCF=(maxcycle=400, symm) Pseudo=
 669\CCSD(T)=-124.2593238\RMSD=2.846e-09\PG=C*V [C*(H1Fe1)]\\@
 Normal termination of Gaussian 16 at Mon Feb 12 21:38:33 2018.
