 Gaussian 16, Revision A.03,
 Gaussian 16:  ES64L-G16RevA.03 25-Dec-2016

 ----------------------------------------------------------------------
 #P ROCCSD(T)=(maxcyc=100, Full)/Gen SCF=(maxcycle=400, symm) Pseudo=Re
 ad Integral(NoXCTest) Pop=Regular MaxDisk=500GB Guess=Permute IOp(5/15
 =2)
 ----------------------------------------------------------------------

 ---
 FeH
 ---
 Symbolic Z-matrix:
 Charge =  0 Multiplicity = 4

                         Standard orientation:
 ---------------------------------------------------------------------
 Center     Atomic      Atomic             Coordinates (Angstroms)
 Number     Number       Type             X           Y           Z
 ---------------------------------------------------------------------
      1         26           0        0.000000    0.000000    0.040741
      2          1           0        0.000000    0.000000   -1.059259
 ---------------------------------------------------------------------

 SCF Done:  E(ROHF) =  -123.488959449     A.U. after   35 cycles
 E2 =    -0.8268569056D+00 EUMP2 =    -0.12431581635411D+03
 CCSD(T)
 CCSD(T)= -0.12430683375D+03

 Unable to determine electronic state:  partially filled degenerate orbitals.
 Alpha  occ. eigenvalues --   -4.35985  -2.85709  -2.82253  -2.82253  -0.58848
 Alpha  occ. eigenvalues --   -0.57285  -0.57285  -0.54174  -0.49297  -0.30171
 Alpha virt. eigenvalues --    0.00641   0.02196   0.02196   0.02252   0.04139
 Alpha virt. eigenvalues --    0.05990   0.06228   0.06228   0.06291   0.06300
 Alpha virt. eigenvalues --    0.07062   0.07062   0.07984   0.12885   0.17531

 Mulliken charges and spin densities:
               1          2
     1  Fe   0.305919   2.985680
     2  H   -0.305919   0.014320
 Sum of Mulliken charges =  -0.00000   3.00000

 Dipole moment (field-independent basis, Debye):
    X=              0.0000    Y=              0.0000    Z=              2.6863  Tot=              2.6863
 Quadrupole moment (field-independent basis, Debye-Ang):
   XX=            -16.8583   YY=            -16.8583   ZZ=            -15.7953
   XY=              0.0000   XZ=              0.0000   YZ=              0.0000

 \\#P ROCCSD(T)=(maxcyc=100, Full)/Gen SCF=(maxcycle=400, symm) Pseudo=
 2762987\CCSD(T)=-124.3068338\RMSD=4.965e-09\PG=C*V [C*(H1Fe1)]\\@
 Normal termination of Gaussian 16 at Mon Feb 12 23:50:52 2018.
