 Gaussian 16, Revision A.03,
 Gaussian 16:  ES64L-G16RevA.03 25-Dec-2016

 ----------------------------------------------------------------------
 #P ROCCSD(T)=(maxcyc=100, Full)/Gen SCF=(maxcycle=400, symm) Pseudo=Re
 ad Integral(NoXCTest) Pop=Regular MaxDisk=500GB Guess=Permute IOp(5/15
 =2)
 ----------------------------------------------------------------------

 ---
 FeH
 ---
 Symbolic Z-matrix:
 Charge =  0 Multiplicity = 4

                         Standard orientation:
 ---------------------------------------------------------------------
 Center     Atomic      Atomic             Coordinates (Angstroms)
 Number     Number       Type             X           Y           Z
 ---------------------------------------------------------------------
      1         26           0        0.000000    0.000000    0.040741
      2          1           0        0.000000    0.000000   -1.059259
 ---------------------------------------------------------------------

 SCF Done:  E(ROHF) =  -123.488761859     A.U. after   27 cycles
 E2 =    -0.8125996213D+00 EUMP2 =    -0.12430136148045D+03
 CCSD(T)
 CCSD(T)= -0.12429431770D+03

 Unable to determine electronic state:  partially filled degenerate orbitals.
 Alpha  occ. eigenvalues --   -4.35987  -2.85712  -2.82257  -2.82257  -0.58847
 Alpha  occ. eigenvalues --   -0.57287  -0.57287  -0.54177  -0.49295  -0.30171
 Alpha virt. eigenvalues --    0.00717   0.02258   0.02258   0.02509   0.04856
 Alpha virt. eigenvalues --    0.06289   0.06788   0.06788   0.06867   0.06878
 Alpha virt. eigenvalues --    0.07379   0.07379   0.09068   0.17191   0.18516

 Mulliken charges and spin densities:
               1          2
     1  Fe   0.310847   2.988798
     2  H   -0.310847   0.011202
 Sum of Mulliken charges =  -0.00000   3.00000

 Dipole moment (field-independent basis, Debye):
    X=              0.0000    Y=              0.0000    Z=              2.6861  Tot=              2.6861
 Quadrupole moment (field-independent basis, Debye-Ang):
   XX=            -16.8598   YY=            -16.8598   ZZ=            -15.7945
   XY=              0.0000   XZ=              0.0000   YZ=              0.0000

 \\#P ROCCSD(T)=(maxcyc=100, Full)/Gen SCF=(maxcycle=400, symm) Pseudo=
 2642446\CCSD(T)=-124.2943177\RMSD=6.041e-09\PG=C*V [C*(H1Fe1)]\\@
 Normal termination of Gaussian 16 at Mon Feb 12 22:12:54 2018.
