 Gaussian 16, Revision A.03,
 Gaussian 16:  ES64L-G16RevA.03 25-Dec-2016

 ----------------------------------------------------------------------
 #P ROCCSD(T)=(MaxCyc=150, Full)/Gen SCF=(maxcycle=400, vshift=200) Int
 egral(DKHSO, NoXCTest) Pop=Regular MaxDisk=500GB Guess=Read IOp(5/15=2
 )
 ----------------------------------------------------------------------

 ---
 ZnH
 ---
 Symbolic Z-matrix:
 Charge =  0 Multiplicity = 2

                         Standard orientation:
 ---------------------------------------------------------------------
 Center     Atomic      Atomic             Coordinates (Angstroms)
 Number     Number       Type             X           Y           Z
 ---------------------------------------------------------------------
      1         30           0        0.000000    0.000000    0.041935
      2          1           0        0.000000    0.000000   -1.258065
 ---------------------------------------------------------------------

 SCF Done:  E(ROHF) =  -1794.77680159     A.U. after   22 cycles
 E2 =    -0.1598372901D+01 EUMP2 =    -0.17963751744899D+04
 CCSD(T)
 CCSD(T)= -0.17962940349D+04

 The electronic state is 2-SG.
 Alpha  occ. eigenvalues -- -357.59520 -45.36607 -39.16839 -39.16839 -39.16807
 Alpha  occ. eigenvalues --   -5.83640  -3.91820  -3.91314  -3.91314  -0.81657
 Alpha  occ. eigenvalues --   -0.80073  -0.80073  -0.79890  -0.79890  -0.48456
 Alpha  occ. eigenvalues --   -0.26866
 Alpha virt. eigenvalues --    0.01966   0.01966   0.02184   0.03370   0.06412
 Alpha virt. eigenvalues --    0.06412   0.06923   0.11849   0.14023   0.15321
 Alpha virt. eigenvalues --    0.15321   0.15522   0.15522   0.18971   0.20691

 Mulliken charges and spin densities:
               1          2
     1  Zn   0.297732   0.941261
     2  H   -0.297732   0.058739
 Sum of Mulliken charges =  -0.00000   1.00000

 Dipole moment (field-independent basis, Debye):
    X=              0.0000    Y=             -0.0000    Z=             -0.0421  Tot=              0.0421
 Quadrupole moment (field-independent basis, Debye-Ang):
   XX=            -14.6269   YY=            -14.6269   ZZ=            -20.7879
   XY=              0.0000   XZ=              0.0000   YZ=              0.0000

 \\#P ROCCSD(T)=(MaxCyc=150, Full)/Gen SCF=(maxcycle=400, vshift=200) I
 1\CCSD(T)=-1796.2940349\RMSD=2.309e-09\PG=C*V [C*(H1Zn1)]\\@
 Normal termination of Gaussian 16 at Sun Apr 29 22:02:24 2018.
