 Gaussian 16, Revision A.03,
 Gaussian 16:  ES64L-G16RevA.03 25-Dec-2016

 ----------------------------------------------------------------------
 #P ROCCSD(T)=(MaxCyc=150, Full)/Gen SCF=(maxcycle=400, vshift=200) Int
 egral(DKHSO, NoXCTest) Pop=Regular MaxDisk=500GB Guess=Read IOp(5/15=2
 )
 ----------------------------------------------------------------------

 ---
 ZnH
 ---
 Symbolic Z-matrix:
 Charge =  0 Multiplicity = 2

                         Standard orientation:
 ---------------------------------------------------------------------
 Center     Atomic      Atomic             Coordinates (Angstroms)
 Number     Number       Type             X           Y           Z
 ---------------------------------------------------------------------
      1         30           0        0.000000    0.000000    0.041935
      2          1           0        0.000000    0.000000   -1.258065
 ---------------------------------------------------------------------

 SCF Done:  E(ROHF) =  -1794.77644772     A.U. after   18 cycles
 E2 =    -0.1556724567D+01 EUMP2 =    -0.17963331722879D+04
 CCSD(T)
 CCSD(T)= -0.17962537381D+04

 The electronic state is 2-SG.
 Alpha  occ. eigenvalues -- -357.59514 -45.36607 -39.16840 -39.16840 -39.16808
 Alpha  occ. eigenvalues --   -5.83641  -3.91821  -3.91316  -3.91316  -0.81659
 Alpha  occ. eigenvalues --   -0.80075  -0.80075  -0.79892  -0.79892  -0.48454
 Alpha  occ. eigenvalues --   -0.26865
 Alpha virt. eigenvalues --    0.02030   0.02030   0.02512   0.03759   0.06837
 Alpha virt. eigenvalues --    0.06837   0.07981   0.14383   0.17731   0.17847
 Alpha virt. eigenvalues --    0.17847   0.18204   0.18204   0.21715   0.23211

 Mulliken charges and spin densities:
               1          2
     1  Zn   0.263662   0.939856
     2  H   -0.263662   0.060144
 Sum of Mulliken charges =  -0.00000   1.00000

 Dipole moment (field-independent basis, Debye):
    X=              0.0000    Y=              0.0000    Z=             -0.0420  Tot=              0.0420
 Quadrupole moment (field-independent basis, Debye-Ang):
   XX=            -14.6287   YY=            -14.6287   ZZ=            -20.7881
   XY=              0.0000   XZ=              0.0000   YZ=              0.0000

 \\#P ROCCSD(T)=(MaxCyc=150, Full)/Gen SCF=(maxcycle=400, vshift=200) I
 \CCSD(T)=-1796.2537381\RMSD=8.130e-09\PG=C*V [C*(H1Zn1)]\\@
 Normal termination of Gaussian 16 at Sat Apr 21 10:54:52 2018.
