 Gaussian 16, Revision A.03,
 Gaussian 16:  ES64L-G16RevA.03 25-Dec-2016

 ----------------------------------------------------------------------
 #P ROCCSD(T)=(maxcyc=150, Full, SaveAmplitudes, ReadAmplitudes)/Gen 5d
  7f SCF=(maxcycles=300) Integral(NoXCTest) MaxDisk=500GB Pop=Regular P
 seudo=Read Guess=Read IOp(5/15=2)
 ----------------------------------------------------------------------

 ---
 MnO
 ---
 Symbolic Z-matrix:
 Charge =  0 Multiplicity = 6

                         Standard orientation:
 ---------------------------------------------------------------------
 Center     Atomic      Atomic             Coordinates (Angstroms)
 Number     Number       Type             X           Y           Z
 ---------------------------------------------------------------------
      1         25           0        0.000000    0.000000    0.339394
      2          8           0        0.000000    0.000000   -1.060606
 ---------------------------------------------------------------------

 SCF Done:  E(ROHF) =  -119.115793622     A.U. after   37 cycles
 E2 =    -0.9257958268D+00 EUMP2 =    -0.12004158944903D+03
 CCSD(T)
 CCSD(T)= -0.12005311464D+03

 The electronic state is 6-SG.
 Alpha  occ. eigenvalues --   -4.15685  -2.79616  -2.79616  -2.77432  -1.24494
 Alpha  occ. eigenvalues --   -0.70548  -0.70548  -0.63234  -0.63234  -0.55879
 Alpha  occ. eigenvalues --   -0.41066  -0.41066  -0.31799
 Alpha virt. eigenvalues --    0.01192   0.02186   0.02186   0.03332   0.05135
 Alpha virt. eigenvalues --    0.07098   0.07098   0.08704   0.08704   0.09367
 Alpha virt. eigenvalues --    0.09367   0.09490   0.12559   0.15451   0.23644

 Mulliken charges and spin densities:
               1          2
     1  Mn   0.914457   4.796520
     2  O   -0.914457   0.203480
 Sum of Mulliken charges =   0.00000   5.00000

 Dipole moment (field-independent basis, Debye):
    X=              0.0000    Y=              0.0000    Z=              4.2136  Tot=              4.2136
 Quadrupole moment (field-independent basis, Debye-Ang):
   XX=            -19.6592   YY=            -19.6592   ZZ=            -23.1691
   XY=              0.0000   XZ=              0.0000   YZ=              0.0000

 \\#P ROCCSD(T)=(maxcyc=150, Full, SaveAmplitudes, ReadAmplitudes)/Gen
 .0288648\CCSD=-120.0119534\CCSD(T)=-120.0531146\RMSD=6.831e-09\PG=C*V
 Normal termination of Gaussian 16 at Fri Mar  9 17:31:42 2018.
