 Gaussian 16, Revision A.03,
 Gaussian 16:  ES64L-G16RevA.03 25-Dec-2016

 ----------------------------------------------------------------------
 #P ROCCSD(T)=(maxcyc=150, Full, SaveAmplitudes, ReadAmplitudes)/Gen 5d
  7f SCF=(maxcycles=300) Integral(NoXCTest) MaxDisk=500GB Pop=Regular P
 seudo=Read Guess=Read
 ----------------------------------------------------------------------

 ---
 TiO
 ---
 Symbolic Z-matrix:
 Charge =  0 Multiplicity = 3

                         Standard orientation:
 ---------------------------------------------------------------------
 Center     Atomic      Atomic             Coordinates (Angstroms)
 Number     Number       Type             X           Y           Z
 ---------------------------------------------------------------------
      1         22           0        0.000000    0.000000    0.346667
      2          8           0        0.000000    0.000000   -0.953333
 ---------------------------------------------------------------------

 SCF Done:  E(ROHF) =  -73.1815429036     A.U. after   23 cycles
 E2 =    -0.7652936200D+00 EUMP2 =    -0.73946836523563D+02
 CCSD(T)
 CCSD(T)= -0.73969017417D+02

 Unable to determine electronic state:  an orbital has unidentified symmetry.
 Alpha  occ. eigenvalues --   -2.93563  -1.96326  -1.82711  -1.82711  -1.14608
 Alpha  occ. eigenvalues --   -0.59300  -0.59300  -0.52583  -0.35633  -0.21598
 Alpha virt. eigenvalues --    0.01137   0.01137   0.02112   0.02340   0.03785
 Alpha virt. eigenvalues --    0.03785   0.03806   0.03842   0.03860   0.04637
 Alpha virt. eigenvalues --    0.04637   0.07231   0.10371   0.10641   0.11228

 Mulliken charges and spin densities:
               1          2
     1  Ti   0.983387   1.998267
     2  O   -0.983387   0.001733
 Sum of Mulliken charges =  -0.00000   2.00000

 Dipole moment (field-independent basis, Debye):
    X=              0.0000    Y=              0.0000    Z=              0.6086  Tot=              0.6086
 Quadrupole moment (field-independent basis, Debye-Ang):
   XX=            -22.0719   YY=            -22.0719   ZZ=            -27.0898
   XY=              0.0000   XZ=              0.0000   YZ=              0.0000

 \\#P ROCCSD(T)=(maxcyc=150, Full, SaveAmplitudes, ReadAmplitudes)/Gen
 -0=-73.9468365\CCSD=-73.9329417\CCSD(T)=-73.9690174\RMSD=4.852e-09\PG=
 Normal termination of Gaussian 16 at Sat Mar 10 01:59:53 2018.
