 Gaussian 16, Revision A.03,
 Gaussian 16:  ES64L-G16RevA.03 25-Dec-2016

 ----------------------------------------------------------------------
 #P ROCCSD(T)=(MaxCyc=150, FrzINGC)/Gen SCF=(maxcycle=400) Integral(DKH
 SO, NoXCTest) Pop=Regular MaxDisk=500GB Guess=Read IOp(5/15=2)
 ----------------------------------------------------------------------

 ---
 FeH
 ---
 Symbolic Z-matrix:
 Charge =  0 Multiplicity = 4

                         Standard orientation:
 ---------------------------------------------------------------------
 Center     Atomic      Atomic             Coordinates (Angstroms)
 Number     Number       Type             X           Y           Z
 ---------------------------------------------------------------------
      1         26           0        0.000000    0.000000    0.040741
      2          1           0        0.000000    0.000000   -1.059259
 ---------------------------------------------------------------------

 SCF Done:  E(ROHF) =  -1271.72054465     A.U. after   31 cycles
 E2 =    -0.7651066911D+00 EUMP2 =    -0.12724856513388D+04
 CCSD(T)
 CCSD(T)= -0.12724708729D+04

 Unable to determine electronic state:  an orbital has unidentified symmetry.
 Alpha  occ. eigenvalues -- -263.58953 -32.37571 -27.44683 -27.43888 -27.43888
 Alpha  occ. eigenvalues --   -4.27783  -2.84530  -2.80855  -2.80855  -0.58901
 Alpha  occ. eigenvalues --   -0.57140  -0.57140  -0.53969  -0.49094  -0.29996
 Alpha virt. eigenvalues --    0.00738   0.02436   0.02436   0.02754   0.04916
 Alpha virt. eigenvalues --    0.08106   0.08106   0.09508   0.10190   0.10190
 Alpha virt. eigenvalues --    0.10333   0.10366   0.10558   0.16296   0.25462

 Mulliken charges and spin densities:
               1          2
     1  Fe   0.251555   2.986618
     2  H   -0.251555   0.013382
 Sum of Mulliken charges =  -0.00000   3.00000

 Dipole moment (field-independent basis, Debye):
    X=              0.0000    Y=              0.0000    Z=              2.6636  Tot=              2.6636
 Quadrupole moment (field-independent basis, Debye-Ang):
   XX=            -17.2944   YY=            -17.2944   ZZ=            -16.1506
   XY=              0.0000   XZ=              0.0000   YZ=              0.0000

 \#P ROCCSD(T)=(MaxCyc=150, FrzINGC)/Gen SCF=(maxcycle=400) Integral(DK
 72.4856513\MP4SDQ=-1272.4562249\CCSD=-1272.442903\CCSD(T)=-1272.470872
 Normal termination of Gaussian 16 at Wed Mar  7 11:17:04 2018.
