 Gaussian 16, Revision A.03,
 Gaussian 16:  ES64L-G16RevA.03 25-Dec-2016

 ----------------------------------------------------------------------
 #P ROCCSD(T)=(MaxCyc=150, Full)/Gen SCF=(maxcycle=400, vshift=200) Pse
 udo=Read Integral(NoXCTest) Pop=Regular MaxDisk=500GB Guess=Read IOp(5
 /15=2)
 ----------------------------------------------------------------------

 ---
 CoH
 ---
 Symbolic Z-matrix:
 Charge =  0 Multiplicity = 3

                         Standard orientation:
 ---------------------------------------------------------------------
 Center     Atomic      Atomic             Coordinates (Angstroms)
 Number     Number       Type             X           Y           Z
 ---------------------------------------------------------------------
      1         27           0        0.000000    0.000000    0.057143
      2          1           0        0.000000    0.000000   -1.542857
 ---------------------------------------------------------------------

 SCF Done:  E(ROHF) =  -144.808920197     A.U. after   28 cycles
 E2 =    -0.9196305633D+00 EUMP2 =    -0.14572855075982D+03
 CCSD(T)
 CCSD(T)= -0.14570425074D+03

 Unable to determine electronic state:  partially filled degenerate orbitals.
 Alpha  occ. eigenvalues --   -4.53839  -2.95769  -2.95768  -2.95739  -0.49078
 Alpha  occ. eigenvalues --   -0.48887  -0.44421  -0.44107  -0.44106  -0.32718
 Alpha virt. eigenvalues --   -0.00193   0.02327   0.02327   0.02757   0.03930
 Alpha virt. eigenvalues --    0.06419   0.06614   0.06624   0.06883   0.06883
 Alpha virt. eigenvalues --    0.08220   0.08220   0.08814   0.14436   0.18039

 Mulliken charges and spin densities:
               1          2
     1  Co   0.324951   1.991214
     2  H   -0.324951   0.008786
 Sum of Mulliken charges =  -0.00000   2.00000

 Dipole moment (field-independent basis, Debye):
    X=              0.0000    Y=              0.0000    Z=              4.4971  Tot=              4.4971
 Quadrupole moment (field-independent basis, Debye-Ang):
   XX=            -13.9561   YY=            -13.9562   ZZ=            -18.2792
   XY=              0.0000   XZ=              0.0000   YZ=              0.0000

 \\#P ROCCSD(T)=(MaxCyc=150, Full)/Gen SCF=(maxcycle=400, vshift=200) P
 \PMP2-0=-145.7285508\MP4SDQ=-145.6962734\CCSD=-145.6718659\CCSD(T)=-14
 Normal termination of Gaussian 16 at Thu May  3 18:12:23 2018.
