 Gaussian 16, Revision A.03,
 Gaussian 16:  ES64L-G16RevA.03 25-Dec-2016

 ----------------------------------------------------------------------
 #P ROCCSD(T)=(MaxCyc=150, Full)/Gen SCF=(maxcycle=400, vshift=200) Pse
 udo=Read Integral(NoXCTest) Pop=Regular MaxDisk=500GB Guess=Read IOp(5
 /15=2)
 ----------------------------------------------------------------------

 ---
 CoH
 ---
 Symbolic Z-matrix:
 Charge =  0 Multiplicity = 3

                         Standard orientation:
 ---------------------------------------------------------------------
 Center     Atomic      Atomic             Coordinates (Angstroms)
 Number     Number       Type             X           Y           Z
 ---------------------------------------------------------------------
      1         27           0        0.000000    0.000000    0.057143
      2          1           0        0.000000    0.000000   -1.542857
 ---------------------------------------------------------------------

 SCF Done:  E(ROHF) =  -144.806872096     A.U. after   29 cycles
 E2 =    -0.8582558502D+00 EUMP2 =    -0.14566512794665D+03
 CCSD(T)
 CCSD(T)= -0.14564471208D+03

 Unable to determine electronic state:  partially filled degenerate orbitals.
 Alpha  occ. eigenvalues --   -4.53848  -2.95785  -2.95785  -2.95756  -0.49078
 Alpha  occ. eigenvalues --   -0.48887  -0.44411  -0.44093  -0.44093  -0.32718
 Alpha virt. eigenvalues --   -0.00128   0.02659   0.02659   0.03394   0.04828
 Alpha virt. eigenvalues --    0.09423   0.09423   0.10171   0.11281   0.11324
 Alpha virt. eigenvalues --    0.11538   0.11538   0.11590   0.18840   0.24916

 Mulliken charges and spin densities:
               1          2
     1  Co   0.370058   1.983051
     2  H   -0.370058   0.016949
 Sum of Mulliken charges =  -0.00000   2.00000

 Dipole moment (field-independent basis, Debye):
    X=              0.0000    Y=              0.0000    Z=              4.5020  Tot=              4.5020
 Quadrupole moment (field-independent basis, Debye-Ang):
   XX=            -13.9691   YY=            -13.9691   ZZ=            -18.2720
   XY=              0.0000   XZ=              0.0000   YZ=              0.0000

 \\#P ROCCSD(T)=(MaxCyc=150, Full)/Gen SCF=(maxcycle=400, vshift=200) P
 \PMP2-0=-145.6651279\MP4SDQ=-145.6397084\CCSD=-145.6144798\CCSD(T)=-14
 Normal termination of Gaussian 16 at Thu May  3 15:13:09 2018.
