 Gaussian 16, Revision A.03,
 Gaussian 16:  ES64L-G16RevA.03 25-Dec-2016

 ----------------------------------------------------------------------
 #P ROCCSD(T)=(MaxCyc=150, Full)/Gen SCF=(maxcycle=400, vshift=200) Pse
 udo=Read Integral(NoXCTest) Pop=Regular MaxDisk=500GB Guess=Read IOp(5
 /15=2)
 ----------------------------------------------------------------------

 ---
 CoH
 ---
 Symbolic Z-matrix:
 Charge =  0 Multiplicity = 3

                         Standard orientation:
 ---------------------------------------------------------------------
 Center     Atomic      Atomic             Coordinates (Angstroms)
 Number     Number       Type             X           Y           Z
 ---------------------------------------------------------------------
      1         27           0        0.000000    0.000000    0.057143
      2          1           0        0.000000    0.000000   -1.542857
 ---------------------------------------------------------------------

 SCF Done:  E(ROHF) =  -144.808579772     A.U. after   35 cycles
 E2 =    -0.8995628648D+00 EUMP2 =    -0.14570814263699D+03
 CCSD(T)
 CCSD(T)= -0.14568610145D+03

 Unable to determine electronic state:  partially filled degenerate orbitals.
 Alpha  occ. eigenvalues --   -4.53837  -2.95771  -2.95771  -2.95742  -0.49081
 Alpha  occ. eigenvalues --   -0.48890  -0.44417  -0.44101  -0.44101  -0.32718
 Alpha virt. eigenvalues --   -0.00149   0.02406   0.02406   0.03072   0.04548
 Alpha virt. eigenvalues --    0.06990   0.07317   0.07331   0.07559   0.07559
 Alpha virt. eigenvalues --    0.08616   0.08616   0.10113   0.18163   0.19919

 Mulliken charges and spin densities:
               1          2
     1  Co   0.353739   1.993687
     2  H   -0.353739   0.006313
 Sum of Mulliken charges =  -0.00000   2.00000

 Dipole moment (field-independent basis, Debye):
    X=              0.0000    Y=              0.0000    Z=              4.4975  Tot=              4.4975
 Quadrupole moment (field-independent basis, Debye-Ang):
   XX=            -13.9570   YY=            -13.9570   ZZ=            -18.2786
   XY=              0.0000   XZ=              0.0000   YZ=              0.0000

 \\#P ROCCSD(T)=(MaxCyc=150, Full)/Gen SCF=(maxcycle=400, vshift=200) P
 \PMP2-0=-145.7081426\MP4SDQ=-145.6790457\CCSD=-145.6543101\CCSD(T)=-14
 Normal termination of Gaussian 16 at Thu May  3 15:58:16 2018.
