 Gaussian 16, Revision A.03,
 Gaussian 16:  ES64L-G16RevA.03 25-Dec-2016

 ----------------------------------------------------------------------
 #P ROCCSD(T)=(MaxCyc=150, FrzINGC)/Gen SCF=(maxcycle=400, vshift=200)
 Integral(DKHSO, NoXCTest) Pop=Regular MaxDisk=500GB Guess=Read IOp(5/1
 5=2)
 ----------------------------------------------------------------------

 ---
 ZnH
 ---
 Symbolic Z-matrix:
 Charge =  0 Multiplicity = 2

                         Standard orientation:
 ---------------------------------------------------------------------
 Center     Atomic      Atomic             Coordinates (Angstroms)
 Number     Number       Type             X           Y           Z
 ---------------------------------------------------------------------
      1         30           0        0.000000    0.000000    0.048387
      2          1           0        0.000000    0.000000   -1.451613
 ---------------------------------------------------------------------

 SCF Done:  E(ROHF) =  -1794.80052518     A.U. after   17 cycles
 E2 =    -0.1038644274D+01 EUMP2 =    -0.17958391694494D+04
 CCSD(T)
 CCSD(T)= -0.17957718164D+04

 The electronic state is 2-SG.
 Alpha  occ. eigenvalues -- -357.59276 -45.36107 -39.16401 -39.16401 -39.16301
 Alpha  occ. eigenvalues --   -5.83101  -3.90992  -3.90971  -3.90971  -0.80038
 Alpha  occ. eigenvalues --   -0.79779  -0.79779  -0.79338  -0.79338  -0.46696
 Alpha  occ. eigenvalues --   -0.27504
 Alpha virt. eigenvalues --    0.02106   0.02106   0.02844   0.03972   0.07721
 Alpha virt. eigenvalues --    0.07721   0.08863   0.15840   0.18578   0.24264
 Alpha virt. eigenvalues --    0.24264   0.25022   0.25022   0.25715   0.29276

 Mulliken charges and spin densities:
               1          2
     1  Zn   0.316867   0.941424
     2  H   -0.316867   0.058576
 Sum of Mulliken charges =  -0.00000   1.00000

 Dipole moment (field-independent basis, Debye):
    X=              0.0000    Y=              0.0000    Z=              0.4877  Tot=              0.4877
 Quadrupole moment (field-independent basis, Debye-Ang):
   XX=            -14.7345   YY=            -14.7345   ZZ=            -21.1478
   XY=              0.0000   XZ=              0.0000   YZ=              0.0000

 \#P ROCCSD(T)=(MaxCyc=150, FrzINGC)/Gen SCF=(maxcycle=400, vshift=200)
 43\CCSD(T)=-1795.7718164\RMSD=9.561e-09\PG=C*V [C*(H1Zn1)]\\@
 Normal termination of Gaussian 16 at Sat Apr 21 10:46:05 2018.
