 Gaussian 16, Revision A.03,
 Gaussian 16:  ES64L-G16RevA.03 25-Dec-2016

 ----------------------------------------------------------------------
 #P ROCCSD(T)=(maxcyc=150, Full, SaveAmplitudes, ReadAmplitudes)/Gen 5d
  7f SCF=(maxcycles=300) Integral(NoXCTest) MaxDisk=500GB Pop=Regular P
 seudo=Read Guess=Read
 ----------------------------------------------------------------------

 ---
 MnO
 ---
 Symbolic Z-matrix:
 Charge =  0 Multiplicity = 6

                         Standard orientation:
 ---------------------------------------------------------------------
 Center     Atomic      Atomic             Coordinates (Angstroms)
 Number     Number       Type             X           Y           Z
 ---------------------------------------------------------------------
      1         25           0        0.000000    0.000000    0.315152
      2          8           0        0.000000    0.000000   -0.984848
 ---------------------------------------------------------------------

 SCF Done:  E(ROHF) =  -119.034335400     A.U. after   22 cycles
 E2 =    -0.9725923914D+00 EUMP2 =    -0.12000692779136D+03
 CCSD(T)
 CCSD(T)= -0.12001173987D+03

 The electronic state is 6-SG.
 Alpha  occ. eigenvalues --   -4.14279  -2.77806  -2.77806  -2.77781  -1.27655
 Alpha  occ. eigenvalues --   -0.73367  -0.73367  -0.61332  -0.61332  -0.60163
 Alpha  occ. eigenvalues --   -0.40635  -0.40635  -0.30183
 Alpha virt. eigenvalues --    0.01803   0.02218   0.02218   0.02927   0.05362
 Alpha virt. eigenvalues --    0.05975   0.05975   0.05981   0.05981   0.07542
 Alpha virt. eigenvalues --    0.07542   0.07758   0.11219   0.14781   0.18082

 Mulliken charges and spin densities:
               1          2
     1  Mn   1.014306   4.729583
     2  O   -1.014306   0.270417
 Sum of Mulliken charges =  -0.00000   5.00000

 Dipole moment (field-independent basis, Debye):
    X=              0.0000    Y=              0.0000    Z=              2.7178  Tot=              2.7178
 Quadrupole moment (field-independent basis, Debye-Ang):
   XX=            -19.8381   YY=            -19.8381   ZZ=            -22.8772
   XY=              0.0000   XZ=              0.0000   YZ=              0.0000

 \\#P ROCCSD(T)=(maxcyc=150, Full, SaveAmplitudes, ReadAmplitudes)/Gen
 9.0343354\PMP2-0=-120.0069278\CCSD=-119.9704938\CCSD(T)=-120.0117399\R
 Normal termination of Gaussian 16 at Sat Mar 10 07:38:54 2018.
