 Gaussian 16, Revision A.03,
 Gaussian 16:  ES64L-G16RevA.03 25-Dec-2016

 ----------------------------------------------------------------------
 #P ROCCSD(T)=(MaxCyc=150, Full)/Gen SCF=(maxcycle=400, vshift=200) Pse
 udo=Read Integral(NoXCTest) Pop=Regular MaxDisk=500GB Guess=Read IOp(5
 /15=2)
 ----------------------------------------------------------------------

 ---
 FeH
 ---
 Symbolic Z-matrix:
 Charge =  0 Multiplicity = 4

                         Standard orientation:
 ---------------------------------------------------------------------
 Center     Atomic      Atomic             Coordinates (Angstroms)
 Number     Number       Type             X           Y           Z
 ---------------------------------------------------------------------
      1         26           0        0.000000    0.000000    0.048148
      2          1           0        0.000000    0.000000   -1.251852
 ---------------------------------------------------------------------

 SCF Done:  E(ROHF) =  -123.091510485     A.U. after   23 cycles
 E2 =    -0.8138159766D+00 EUMP2 =    -0.12390532646136D+03
 CCSD(T)
 CCSD(T)= -0.12389908210D+03

 Unable to determine electronic state:  partially filled degenerate orbitals.
 Alpha  occ. eigenvalues --   -4.27946  -2.81657  -2.79968  -2.79968  -0.53715
 Alpha  occ. eigenvalues --   -0.53715  -0.51763  -0.51556  -0.46888  -0.30898
 Alpha virt. eigenvalues --    0.00215   0.02254   0.02254   0.02689   0.04428
 Alpha virt. eigenvalues --    0.06247   0.06821   0.06821   0.06848   0.06860
 Alpha virt. eigenvalues --    0.07573   0.07573   0.09396   0.17127   0.17983

 Mulliken charges and spin densities:
               1          2
     1  Fe   0.300125   2.992753
     2  H   -0.300125   0.007247
 Sum of Mulliken charges =  -0.00000   3.00000

 Dipole moment (field-independent basis, Debye):
    X=              0.0000    Y=              0.0000    Z=              3.4114  Tot=              3.4114
 Quadrupole moment (field-independent basis, Debye-Ang):
   XX=            -16.4128   YY=            -16.4128   ZZ=            -16.1189
   XY=              0.0000   XZ=              0.0000   YZ=              0.0000

 \\#P ROCCSD(T)=(MaxCyc=150, Full)/Gen SCF=(maxcycle=400, vshift=200) P
 \PMP2-0=-123.9053265\MP4SDQ=-123.8794102\CCSD=-123.8682489\CCSD(T)=-12
 Normal termination of Gaussian 16 at Sun Apr 22 23:18:02 2018.
