 Gaussian 16, Revision A.03,
 Gaussian 16:  ES64L-G16RevA.03 25-Dec-2016

 ----------------------------------------------------------------------
 #P ROCCSD(T)=(MaxCyc=150, Full)/Gen SCF=(maxcycle=400, vshift=200) Pse
 udo=Read Integral(NoXCTest) Pop=Regular MaxDisk=500GB Guess=Read IOp(5
 /15=2)
 ----------------------------------------------------------------------

 ---
 FeH
 ---
 Symbolic Z-matrix:
 Charge =  0 Multiplicity = 4

                         Standard orientation:
 ---------------------------------------------------------------------
 Center     Atomic      Atomic             Coordinates (Angstroms)
 Number     Number       Type             X           Y           Z
 ---------------------------------------------------------------------
      1         26           0        0.000000    0.000000    0.048148
      2          1           0        0.000000    0.000000   -1.251852
 ---------------------------------------------------------------------

 SCF Done:  E(ROHF) =  -123.090389031     A.U. after   28 cycles
 E2 =    -0.7782664735D+00 EUMP2 =    -0.12386865550486D+03
 CCSD(T)
 CCSD(T)= -0.12386441080D+03

 Unable to determine electronic state:  an orbital has unidentified symmetry.
 Alpha  occ. eigenvalues --   -4.27951  -2.81669  -2.79978  -2.79978  -0.53716
 Alpha  occ. eigenvalues --   -0.53716  -0.51763  -0.51553  -0.46886  -0.30897
 Alpha virt. eigenvalues --    0.00244   0.02470   0.02470   0.02947   0.04616
 Alpha virt. eigenvalues --    0.08335   0.08335   0.09598   0.10305   0.10305
 Alpha virt. eigenvalues --    0.10322   0.10358   0.10547   0.16734   0.24840

 Mulliken charges and spin densities:
               1          2
     1  Fe   0.363629   2.994138
     2  H   -0.363629   0.005862
 Sum of Mulliken charges =  -0.00000   3.00000

 Dipole moment (field-independent basis, Debye):
    X=              0.0000    Y=              0.0000    Z=              3.4148  Tot=              3.4148
 Quadrupole moment (field-independent basis, Debye-Ang):
   XX=            -16.4222   YY=            -16.4222   ZZ=            -16.1141
   XY=              0.0000   XZ=              0.0000   YZ=              0.0000

 \\#P ROCCSD(T)=(MaxCyc=150, Full)/Gen SCF=(maxcycle=400, vshift=200) P
 MP2-0=-123.8686555\MP4SDQ=-123.8463651\CCSD=-123.834977\CCSD(T)=-123.8
 Normal termination of Gaussian 16 at Sun Apr 22 23:02:27 2018.
