 Gaussian 16, Revision A.03,
 Gaussian 16:  ES64L-G16RevA.03 25-Dec-2016

 ----------------------------------------------------------------------
 #P ROCCSD(T)=(MaxCyc=150, Full)/Gen SCF=(maxcycle=400, vshift=200) Pse
 udo=Read Integral(NoXCTest) Pop=Regular MaxDisk=500GB Guess=Read IOp(5
 /15=2)
 ----------------------------------------------------------------------

 ---
 FeH
 ---
 Symbolic Z-matrix:
 Charge =  0 Multiplicity = 4

                         Standard orientation:
 ---------------------------------------------------------------------
 Center     Atomic      Atomic             Coordinates (Angstroms)
 Number     Number       Type             X           Y           Z
 ---------------------------------------------------------------------
      1         26           0        0.000000    0.000000    0.048148
      2          1           0        0.000000    0.000000   -1.251852
 ---------------------------------------------------------------------

 SCF Done:  E(ROHF) =  -123.091711304     A.U. after   18 cycles
 E2 =    -0.8280844224D+00 EUMP2 =    -0.12391979572655D+03
 CCSD(T)
 CCSD(T)= -0.12391153029D+03

 Unable to determine electronic state:  partially filled degenerate orbitals.
 Alpha  occ. eigenvalues --   -4.27943  -2.81652  -2.79963  -2.79963  -0.53712
 Alpha  occ. eigenvalues --   -0.53712  -0.51759  -0.51558  -0.46890  -0.30898
 Alpha virt. eigenvalues --    0.00167   0.02190   0.02190   0.02406   0.03805
 Alpha virt. eigenvalues --    0.05874   0.06272   0.06281   0.06286   0.06286
 Alpha virt. eigenvalues --    0.07240   0.07240   0.08243   0.13007   0.17298

 Mulliken charges and spin densities:
               1          2
     1  Fe   0.293701   2.991803
     2  H   -0.293701   0.008197
 Sum of Mulliken charges =  -0.00000   3.00000

 Dipole moment (field-independent basis, Debye):
    X=              0.0000    Y=              0.0000    Z=              3.4115  Tot=              3.4115
 Quadrupole moment (field-independent basis, Debye-Ang):
   XX=            -16.4110   YY=            -16.4110   ZZ=            -16.1203
   XY=              0.0000   XZ=              0.0000   YZ=              0.0000

 \\#P ROCCSD(T)=(MaxCyc=150, Full)/Gen SCF=(maxcycle=400, vshift=200) P
 \PMP2-0=-123.9197957\MP4SDQ=-123.891233\CCSD=-123.8802021\CCSD(T)=-123
 Normal termination of Gaussian 16 at Sun Apr 22 23:58:07 2018.
