 Gaussian 16, Revision A.03,
 Gaussian 16:  ES64L-G16RevA.03 25-Dec-2016

 ----------------------------------------------------------------------
 #P ROCCSD(T)=(maxcyc=150, Full, SaveAmplitudes, ReadAmplitudes)/Gen 5d
  7f SCF=(maxcycles=300, VShift=400) Integral(NoXCTest) MaxDisk=500GB P
 op=Full Pseudo=Read Guess=Read IOp(5/15=2)
 ----------------------------------------------------------------------

 ---
 CrO
 ---
 Symbolic Z-matrix:
 Charge =  0 Multiplicity = 5

                         Standard orientation:
 ---------------------------------------------------------------------
 Center     Atomic      Atomic             Coordinates (Angstroms)
 Number     Number       Type             X           Y           Z
 ---------------------------------------------------------------------
      1         24           0        0.000000    0.000000    0.425000
      2          8           0        0.000000    0.000000   -1.275000
 ---------------------------------------------------------------------

 SCF Done:  E(ROHF) =  -101.706564464     A.U. after   80 cycles
 E2 =    -0.8646564842D+00 EUMP2 =    -0.10257122094796D+03
 CCSD(T)
 CCSD(T)= -0.10261637356D+03

 Unable to determine electronic state:  an orbital has unidentified symmetry.
 Alpha  occ. eigenvalues --   -3.71102  -2.47679  -2.42996  -2.41893  -1.12018
 Alpha  occ. eigenvalues --   -0.56085  -0.55964  -0.54228  -0.49788  -0.36652
 Alpha  occ. eigenvalues --   -0.33900  -0.32773
 Alpha virt. eigenvalues --   -0.03402   0.00890   0.01579   0.02214   0.03726
 Alpha virt. eigenvalues --    0.05095   0.06386   0.07509   0.07525   0.07688
 Alpha virt. eigenvalues --    0.08313   0.08797   0.13278   0.14670   0.15655

 Mulliken charges and spin densities:
               1          2
     1  Cr   1.170333   3.901982
     2  O   -1.170333   0.098018
 Sum of Mulliken charges =  -0.00000   4.00000

 Dipole moment (field-independent basis, Debye):
    X=              0.0000    Y=              0.0000    Z=              8.8606  Tot=              8.8606
 Quadrupole moment (field-independent basis, Debye-Ang):
   XX=            -19.7376   YY=            -18.7093   ZZ=            -23.1423
   XY=              0.0000   XZ=              0.0000   YZ=              0.0000

 \\#P ROCCSD(T)=(maxcyc=150, Full, SaveAmplitudes, ReadAmplitudes)/Gen
 805171\CCSD=-102.5661076\CCSD(T)=-102.6163736\RMSD=9.321e-09\PG=C*V [C
 Normal termination of Gaussian 16 at Thu Apr 19 07:59:40 2018.
