 Gaussian 16, Revision A.03,
 Gaussian 16:  ES64L-G16RevA.03 25-Dec-2016

 ----------------------------------------------------------------------
 #P ROCCSD(T)=(MaxCyc=150, Full)/Gen SCF=(maxcycle=400, vshift=200) Pse
 udo=Read Integral(NoXCTest) Pop=Regular MaxDisk=500GB Guess=Read IOp(5
 /15=2)
 ----------------------------------------------------------------------

 ---
 CuO
 ---
 Symbolic Z-matrix:
 Charge =  0 Multiplicity = 2

                         Standard orientation:
 ---------------------------------------------------------------------
 Center     Atomic      Atomic             Coordinates (Angstroms)
 Number     Number       Type             X           Y           Z
 ---------------------------------------------------------------------
      1         29           0        0.000000    0.000000    0.389189
      2          8           0        0.000000    0.000000   -1.410811
 ---------------------------------------------------------------------

 SCF Done:  E(ROHF) =  -211.054414743     A.U. after   19 cycles
 E2 =    -0.1334705813D+01 EUMP2 =    -0.21238912055551D+03
 CCSD(T)
 CCSD(T)= -0.21232139780D+03

 Unable to determine electronic state:  an orbital has unidentified symmetry.
 Alpha  occ. eigenvalues --   -5.24802  -3.41905  -3.41749  -3.41553  -1.22523
 Alpha  occ. eigenvalues --   -0.56503  -0.53892  -0.53421  -0.52056  -0.52055
 Alpha  occ. eigenvalues --   -0.48100  -0.41601  -0.40634
 Alpha virt. eigenvalues --   -0.01449   0.02493   0.02620   0.03455   0.04392
 Alpha virt. eigenvalues --    0.08760   0.08997   0.11569   0.13278   0.13283
 Alpha virt. eigenvalues --    0.14497   0.14581   0.15049   0.18916   0.21299

 Mulliken charges and spin densities:
               1          2
     1  Cu   0.757848   0.014184
     2  O   -0.757848   0.985816
 Sum of Mulliken charges =  -0.00000   1.00000

 Dipole moment (field-independent basis, Debye):
    X=              0.0000    Y=              0.0000    Z=              5.9905  Tot=              5.9905
 Quadrupole moment (field-independent basis, Debye-Ang):
   XX=            -15.5574   YY=            -17.1040   ZZ=            -20.9833
   XY=              0.0000   XZ=              0.0000   YZ=              0.0000

 \\#P ROCCSD(T)=(MaxCyc=150, Full)/Gen SCF=(maxcycle=400, vshift=200) P
 \PMP2-0=-212.3891206\MP4SDQ=-212.3461313\CCSD=-212.2743518\CCSD(T)=-21
 Normal termination of Gaussian 16 at Sun May  6 00:21:37 2018.
