 Gaussian 16, Revision A.03,
 Gaussian 16:  ES64L-G16RevA.03 25-Dec-2016

 ----------------------------------------------------------------------
 #P ROCCSD(T)=(MaxCyc=150, Full)/Gen SCF=(maxcycle=400, vshift=200) Pse
 udo=Read Integral(NoXCTest) Pop=Regular MaxDisk=500GB Guess=Read IOp(5
 /15=2)
 ----------------------------------------------------------------------

 ---
 CuO
 ---
 Symbolic Z-matrix:
 Charge =  0 Multiplicity = 2

                         Standard orientation:
 ---------------------------------------------------------------------
 Center     Atomic      Atomic             Coordinates (Angstroms)
 Number     Number       Type             X           Y           Z
 ---------------------------------------------------------------------
      1         29           0        0.000000    0.000000    0.389189
      2          8           0        0.000000    0.000000   -1.410811
 ---------------------------------------------------------------------

 SCF Done:  E(ROHF) =  -211.050492117     A.U. after   18 cycles
 E2 =    -0.1270732336D+01 EUMP2 =    -0.21232122445264D+03
 CCSD(T)
 CCSD(T)= -0.21225632317D+03

 Unable to determine electronic state:  an orbital has unidentified symmetry.
 Alpha  occ. eigenvalues --   -5.24815  -3.41933  -3.41773  -3.41574  -1.22569
 Alpha  occ. eigenvalues --   -0.56500  -0.53893  -0.53434  -0.52056  -0.52055
 Alpha  occ. eigenvalues --   -0.48100  -0.41599  -0.40642
 Alpha virt. eigenvalues --   -0.01450   0.02793   0.02949   0.03921   0.04611
 Alpha virt. eigenvalues --    0.10233   0.10540   0.13554   0.19370   0.19408
 Alpha virt. eigenvalues --    0.19475   0.20498   0.21620   0.22699   0.25999

 Mulliken charges and spin densities:
               1          2
     1  Cu   0.808290   0.014213
     2  O   -0.808290   0.985787
 Sum of Mulliken charges =  -0.00000   1.00000

 Dipole moment (field-independent basis, Debye):
    X=              0.0000    Y=              0.0000    Z=              6.0054  Tot=              6.0054
 Quadrupole moment (field-independent basis, Debye-Ang):
   XX=            -15.5662   YY=            -17.1303   ZZ=            -20.9714
   XY=              0.0000   XZ=              0.0000   YZ=              0.0000

 \\#P ROCCSD(T)=(MaxCyc=150, Full)/Gen SCF=(maxcycle=400, vshift=200) P
 \PMP2-0=-212.3212245\MP4SDQ=-212.2841837\CCSD=-212.2117865\CCSD(T)=-21
 Normal termination of Gaussian 16 at Sat May  5 21:38:15 2018.
