 Gaussian 16, Revision A.03,
 Gaussian 16:  ES64L-G16RevA.03 25-Dec-2016

 ----------------------------------------------------------------------
 #P ROCCSD(T)=(maxcyc=150, Full, SaveAmplitudes, ReadAmplitudes)/Gen 5d
  7f SCF=(maxcycles=300) Integral(NoXCTest) MaxDisk=500GB Pop=Regular P
 seudo=Read Guess=Read
 ----------------------------------------------------------------------

 ---
 MnO
 ---
 Symbolic Z-matrix:
 Charge =  0 Multiplicity = 6

                         Standard orientation:
 ---------------------------------------------------------------------
 Center     Atomic      Atomic             Coordinates (Angstroms)
 Number     Number       Type             X           Y           Z
 ---------------------------------------------------------------------
      1         25           0        0.000000    0.000000    0.363636
      2          8           0        0.000000    0.000000   -1.136364
 ---------------------------------------------------------------------

 SCF Done:  E(ROHF) =  -119.159668488     A.U. after   22 cycles
 E2 =    -0.9661366881D+00 EUMP2 =    -0.12012580517617D+03
 CCSD(T)
 CCSD(T)= -0.12013818857D+03

 The electronic state is 6-SG.
 Alpha  occ. eigenvalues --   -4.16011  -2.79975  -2.79975  -2.77563  -1.19819
 Alpha  occ. eigenvalues --   -0.67955  -0.67955  -0.63711  -0.63711  -0.53355
 Alpha  occ. eigenvalues --   -0.38923  -0.38923  -0.33488
 Alpha virt. eigenvalues --   -0.00528   0.01760   0.01760   0.03089   0.03463
 Alpha virt. eigenvalues --    0.05894   0.05894   0.05906   0.05906   0.06234
 Alpha virt. eigenvalues --    0.07066   0.07066   0.11902   0.13551   0.17824

 Mulliken charges and spin densities:
               1          2
     1  Mn   1.127060   4.811942
     2  O   -1.127060   0.188058
 Sum of Mulliken charges =  -0.00000   5.00000

 Dipole moment (field-independent basis, Debye):
    X=              0.0000    Y=              0.0000    Z=              6.1431  Tot=              6.1431
 Quadrupole moment (field-independent basis, Debye-Ang):
   XX=            -19.3558   YY=            -19.3558   ZZ=            -22.8418
   XY=              0.0000   XZ=              0.0000   YZ=              0.0000

 \\#P ROCCSD(T)=(maxcyc=150, Full, SaveAmplitudes, ReadAmplitudes)/Gen
 9.1596685\PMP2-0=-120.1258052\CCSD=-120.0939646\CCSD(T)=-120.1381886\R
 Normal termination of Gaussian 16 at Sat Mar 10 09:02:33 2018.
