 Gaussian 16, Revision A.03,
 Gaussian 16:  ES64L-G16RevA.03 25-Dec-2016

 ----------------------------------------------------------------------
 #P ROCCSD(T)=(MaxCyc=150, Window=(7,0))/Gen SCF=(maxcycle=400) Integra
 l(DKHSO, NoXCTest) Pop=Regular MaxDisk=500GB Guess=Read IOp(5/15=2)
 ----------------------------------------------------------------------

 ---
 ZnO
 ---
 Symbolic Z-matrix:
 Charge =  0 Multiplicity = 1

                         Standard orientation:
 ---------------------------------------------------------------------
 Center     Atomic      Atomic             Coordinates (Angstroms)
 Number     Number       Type             X           Y           Z
 ---------------------------------------------------------------------
      1         30           0        0.000000    0.000000    0.294737
      2          8           0        0.000000    0.000000   -1.105263
 ---------------------------------------------------------------------

 SCF Done:  E(ROHF) =  -1868.98490759     A.U. after   13 cycles
 E2 =    -0.1348873920D+01 EUMP2 =    -0.18703337815097D+04
 CCSD(T)
 CCSD(T)= -0.18702451664D+04

 The electronic state is 1-SG.
 Alpha  occ. eigenvalues -- -357.61759 -45.39583 -39.19745 -39.19745 -39.19580
 Alpha  occ. eigenvalues --  -20.49612  -5.86995  -3.95969  -3.94177  -3.94177
 Alpha  occ. eigenvalues --   -1.22955  -0.85595  -0.85595  -0.82425  -0.82425
 Alpha  occ. eigenvalues --   -0.79070  -0.41035  -0.41035  -0.39564
 Alpha virt. eigenvalues --   -0.03534   0.02987   0.02987   0.03127   0.04564
 Alpha virt. eigenvalues --    0.09988   0.09988   0.13626   0.18366   0.21743
 Alpha virt. eigenvalues --    0.23307   0.23307   0.25149   0.25149   0.30452

 Mulliken charges and spin densities:
               1          2
     1  Zn   1.296855   0.000000
     2  O   -1.296855   0.000000
 Sum of Mulliken charges =  -0.00000   0.00000

 Dipole moment (field-independent basis, Debye):
    X=              0.0000    Y=              0.0000    Z=              6.5044  Tot=              6.5044
 Quadrupole moment (field-independent basis, Debye-Ang):
   XX=            -18.1382   YY=            -18.1382   ZZ=            -20.3954
   XY=              0.0000   XZ=              0.0000   YZ=              0.0000

 ROCCSD(T)=(MaxCyc=150, Window=(7,0))/Gen SCF=(maxcycle=400) Integral(D
 Normal termination of Gaussian 16 at Mon Apr 16 13:10:02 2018.
