 Gaussian 16, Revision A.03,
 Gaussian 16:  ES64L-G16RevA.03 25-Dec-2016

 ----------------------------------------------------------------------
 #P ROCCSD(T)=(MaxCyc=150, Window=(7,0))/Gen SCF=(maxcycle=400) Integra
 l(DKHSO, NoXCTest) Pop=Regular MaxDisk=500GB Guess=Read IOp(5/15=2)
 ----------------------------------------------------------------------

 ---
 ZnO
 ---
 Symbolic Z-matrix:
 Charge =  0 Multiplicity = 1

                         Standard orientation:
 ---------------------------------------------------------------------
 Center     Atomic      Atomic             Coordinates (Angstroms)
 Number     Number       Type             X           Y           Z
 ---------------------------------------------------------------------
      1         30           0        0.000000    0.000000    0.294737
      2          8           0        0.000000    0.000000   -1.105263
 ---------------------------------------------------------------------

 SCF Done:  E(ROHF) =  -1868.99162702     A.U. after   11 cycles
 E2 =    -0.1415931026D+01 EUMP2 =    -0.18704075580414D+04
 CCSD(T)
 CCSD(T)= -0.18703166703D+04

 The electronic state is 1-SG.
 Alpha  occ. eigenvalues -- -357.61761 -45.39560 -39.19718 -39.19718 -39.19553
 Alpha  occ. eigenvalues --  -20.49450  -5.86973  -3.95937  -3.94157  -3.94157
 Alpha  occ. eigenvalues --   -1.22878  -0.85586  -0.85586  -0.82419  -0.82419
 Alpha  occ. eigenvalues --   -0.79049  -0.41042  -0.41042  -0.39547
 Alpha virt. eigenvalues --   -0.03526   0.02688   0.02688   0.02869   0.04129
 Alpha virt. eigenvalues --    0.08673   0.08673   0.12356   0.16810   0.17934
 Alpha virt. eigenvalues --    0.18159   0.18159   0.20106   0.20106   0.23100

 Mulliken charges and spin densities:
               1          2
     1  Zn   1.075222   0.000000
     2  O   -1.075222   0.000000
 Sum of Mulliken charges =  -0.00000   0.00000

 Dipole moment (field-independent basis, Debye):
    X=              0.0000    Y=              0.0000    Z=              6.4917  Tot=              6.4917
 Quadrupole moment (field-independent basis, Debye-Ang):
   XX=            -18.1263   YY=            -18.1263   ZZ=            -20.3885
   XY=              0.0000   XZ=              0.0000   YZ=              0.0000

 ROCCSD(T)=(MaxCyc=150, Window=(7,0))/Gen SCF=(maxcycle=400) Integral(D
 MP2-0=-1870.407558\MP4SDQ=-1870.3233778\CCSD=-1870.2662542\CCSD(T)=-18
 Normal termination of Gaussian 16 at Mon Apr 16 14:20:50 2018.
