 Gaussian 16, Revision A.03,
 Gaussian 16:  ES64L-G16RevA.03 25-Dec-2016

 ----------------------------------------------------------------------
 #P ROCCSD(T)=(maxcyc=150, Full)/Gen 5d 7f SCF=(maxcycles=300) Integral
 (NoXCTest) MaxDisk=500GB Pop=Regular Pseudo=Read Guess=Read
 ----------------------------------------------------------------------

 ---
 MnH
 ---
 Symbolic Z-matrix:
 Charge =  0 Multiplicity = 7

                         Standard orientation:
 ---------------------------------------------------------------------
 Center     Atomic      Atomic             Coordinates (Angstroms)
 Number     Number       Type             X           Y           Z
 ---------------------------------------------------------------------
      1         25           0        0.000000    0.000000    0.042308
      2          1           0        0.000000    0.000000   -1.057692
 ---------------------------------------------------------------------

 SCF Done:  E(ROHF) =  -103.872202263     A.U. after   22 cycles
 E2 =    -0.6325679262D+00 EUMP2 =    -0.10450477018925D+03
 CCSD(T)
 CCSD(T)= -0.10452173828D+03

 The electronic state is 7-SG.
 Alpha  occ. eigenvalues --   -4.15827  -2.81444  -2.79868  -2.79868  -0.69944
 Alpha  occ. eigenvalues --   -0.64010  -0.64010  -0.63402  -0.63402  -0.40267
 Alpha  occ. eigenvalues --   -0.22760
 Alpha virt. eigenvalues --    0.01250   0.01250   0.01819   0.03265   0.05063
 Alpha virt. eigenvalues --    0.05063   0.05770   0.05824   0.05824   0.06113
 Alpha virt. eigenvalues --    0.06113   0.07988   0.14053   0.15929   0.17673

 Mulliken charges and spin densities:
               1          2
     1  Mn   0.571098   5.833877
     2  H   -0.571098   0.166123
 Sum of Mulliken charges =  -0.00000   6.00000

 Dipole moment (field-independent basis, Debye):
    X=              0.0000    Y=              0.0000    Z=             -0.7489  Tot=              0.7489
 Quadrupole moment (field-independent basis, Debye-Ang):
   XX=            -16.0154   YY=            -16.0154   ZZ=            -25.4802
   XY=              0.0000   XZ=              0.0000   YZ=              0.0000

 \\#P ROCCSD(T)=(maxcyc=150, Full)/Gen 5d 7f SCF=(maxcycles=300) Integr
 =-104.5047702\MP4SDQ=-104.5021244\CCSD=-104.5032763\CCSD(T)=-104.52173
 Normal termination of Gaussian 16 at Mon Feb 12 18:36:49 2018.
