 Gaussian 16, Revision A.03,
 Gaussian 16:  ES64L-G16RevA.03 25-Dec-2016

 ----------------------------------------------------------------------
 #P ROCCSD(T)=(MaxCyc=150, Full)/Gen SCF=(maxcycle=400) Pseudo=Read Int
 egral(NoXCTest) Pop=Regular MaxDisk=500GB
 ----------------------------------------------------------------------

 --
 Zn
 --
 Symbolic Z-matrix:
 Charge =  0 Multiplicity = 1

                         Standard orientation:
 ---------------------------------------------------------------------
 Center     Atomic      Atomic             Coordinates (Angstroms)
 Number     Number       Type             X           Y           Z
 ---------------------------------------------------------------------
      1         30           0        0.000000    0.000000    0.000000
 ---------------------------------------------------------------------

 SCF Done:  E(ROHF) =  -225.964013963     A.U. after    9 cycles
 E2 =    -0.1114087032D+01 EUMP2 =    -0.22707810099506D+03
 CCSD(T)
 CCSD(T)= -0.22702040798D+03

 The electronic state is 1-A1G.
 Alpha  occ. eigenvalues --   -5.86543  -3.93570  -3.93570  -3.93570  -0.76257
 Alpha  occ. eigenvalues --   -0.76257  -0.76257  -0.76257  -0.76257  -0.29860
 Alpha virt. eigenvalues --    0.02396   0.02396   0.02396   0.02659   0.07433
 Alpha virt. eigenvalues --    0.07433   0.07433   0.13208   0.16241   0.16241
 Alpha virt. eigenvalues --    0.16241   0.16241   0.16241   0.23075   0.23075

 Mulliken charges and spin densities:
               1          2
     1  Zn  -0.000000   0.000000
 Sum of Mulliken charges =  -0.00000   0.00000

 Dipole moment (field-independent basis, Debye):
    X=              0.0000    Y=              0.0000    Z=              0.0000  Tot=              0.0000
 Quadrupole moment (field-independent basis, Debye-Ang):
   XX=            -15.2085   YY=            -15.2085   ZZ=            -15.2085
   XY=             -0.0000   XZ=             -0.0000   YZ=              0.0000

 ROCCSD(T)=(MaxCyc=150, Full)/Gen SCF=(maxcycle=400) Pseudo=Read Integr
 226.9898699\CCSD(T)=-227.020408\RMSD=3.336e-09\PG=OH [O(Zn1)]\\@
 Normal termination of Gaussian 16 at Sat May  5 22:03:23 2018.
