 Gaussian 16, Revision A.03,
 Gaussian 16:  ES64L-G16RevA.03 25-Dec-2016

 ----------------------------------------------------------------------
 #P ROCCSD(T)=(MaxCyc=150, Full)/Gen SCF=(maxcycle=400) Pseudo=Read Int
 egral(NoXCTest) Pop=Regular MaxDisk=500GB
 ----------------------------------------------------------------------

 --
 Zn
 --
 Symbolic Z-matrix:
 Charge =  0 Multiplicity = 1

                         Standard orientation:
 ---------------------------------------------------------------------
 Center     Atomic      Atomic             Coordinates (Angstroms)
 Number     Number       Type             X           Y           Z
 ---------------------------------------------------------------------
      1         30           0        0.000000    0.000000    0.000000
 ---------------------------------------------------------------------

 SCF Done:  E(ROHF) =  -225.962961532     A.U. after   10 cycles
 E2 =    -0.1033651241D+01 EUMP2 =    -0.22699661277278D+03
 CCSD(T)
 CCSD(T)= -0.22694169564D+03

 The electronic state is 1-A1G.
 Alpha  occ. eigenvalues --   -5.86546  -3.93581  -3.93581  -3.93581  -0.76257
 Alpha  occ. eigenvalues --   -0.76257  -0.76257  -0.76257  -0.76257  -0.29864
 Alpha virt. eigenvalues --    0.02677   0.02677   0.02677   0.03353   0.08972
 Alpha virt. eigenvalues --    0.08972   0.08972   0.18059   0.26459   0.26459
 Alpha virt. eigenvalues --    0.26459   0.26459   0.26459   0.32285   0.32285

 Mulliken charges and spin densities:
               1          2
     1  Zn  -0.000000   0.000000
 Sum of Mulliken charges =  -0.00000   0.00000

 Dipole moment (field-independent basis, Debye):
    X=              0.0000    Y=              0.0000    Z=              0.0000  Tot=              0.0000
 Quadrupole moment (field-independent basis, Debye-Ang):
   XX=            -15.2100   YY=            -15.2100   ZZ=            -15.2100
   XY=             -0.0000   XZ=             -0.0000   YZ=              0.0000

 ROCCSD(T)=(MaxCyc=150, Full)/Gen SCF=(maxcycle=400) Pseudo=Read Integr
 SD=-226.9137418\CCSD(T)=-226.9416956\RMSD=1.472e-09\PG=OH [O(Zn1)]\\@
 Normal termination of Gaussian 16 at Thu Mar 29 04:55:45 2018.
