 Gaussian 16, Revision A.03,
 Gaussian 16:  ES64L-G16RevA.03 25-Dec-2016

 ----------------------------------------------------------------------
 #P ROCCSD(T)=(maxcyc=150, Full)/Gen 5d 7f SCF=(maxcycles=300) MaxDisk=
 100GB Pop=Regular Pseudo=Read Guess=Read IOp(5/15=2)
 ----------------------------------------------------------------------

 --
 Cr
 --
 Symbolic Z-matrix:
 Charge =  0 Multiplicity = 7

                         Standard orientation:
 ---------------------------------------------------------------------
 Center     Atomic      Atomic             Coordinates (Angstroms)
 Number     Number       Type             X           Y           Z
 ---------------------------------------------------------------------
      1         24           0        0.000000    0.000000    0.000000
 ---------------------------------------------------------------------

 SCF Done:  E(ROHF) =  -86.1564251333     A.U. after    6 cycles
 E2 =    -0.5251849384D+00 EUMP2 =    -0.86681610071727D+02
 CCSD(T)
 CCSD(T)= -0.86693147049D+02

 The electronic state is 7-A1G.
 Alpha  occ. eigenvalues --   -3.56879  -2.32553  -2.32553  -2.32553  -0.36885
 Alpha  occ. eigenvalues --   -0.36885  -0.36885  -0.36885  -0.36885  -0.22589
 Alpha virt. eigenvalues --    0.01788   0.01788   0.01788   0.03173   0.06504
 Alpha virt. eigenvalues --    0.06504   0.06504   0.07933   0.07933   0.07933
 Alpha virt. eigenvalues --    0.07933   0.07933   0.21105   0.23163   0.23163

 Mulliken charges and spin densities:
               1          2
     1  Cr  -0.000000   6.000000
 Sum of Mulliken charges =  -0.00000   6.00000

 Dipole moment (field-independent basis, Debye):
    X=              0.0000    Y=              0.0000    Z=              0.0000  Tot=              0.0000
 Quadrupole moment (field-independent basis, Debye-Ang):
   XX=            -16.4687   YY=            -16.4687   ZZ=            -16.4687
   XY=             -0.0000   XZ=             -0.0000   YZ=              0.0000

 1\1\GINC-C455-012\SP\ROCCSD(T)-Full\Gen\Cr1(7)\AANNABE\26-Feb-2018\0\\
 #P ROCCSD(T)=(maxcyc=150, Full)/Gen 5d 7f SCF=(maxcycles=300) MaxDisk=
 100GB Pop=Regular Pseudo=Read Guess=Read IOp(5/15=2)\\Cr\\0,7\Cr,0,0.,
 0.,0.\\Version=ES64L-G16RevA.03\State=7-A1G\HF=-86.1564251\MP2=-86.681
 6101\MP3=-86.6742654\PUHF=-86.1564251\PMP2-0=-86.6816101\MP4SDQ=-86.67
 8193\CCSD=-86.6771767\CCSD(T)=-86.693147\RMSD=7.131e-10\PG=OH [O(Cr1)]
 \\@

 Normal termination of Gaussian 16 at Mon Feb 26 16:56:04 2018.
