 Gaussian 16, Revision A.03,
 Gaussian 16:  ES64L-G16RevA.03 25-Dec-2016

 ----------------------------------------------------------------------
 #P ROCCSD(T)=(maxcyc=150, Full, SaveAmplitudes, ReadAmplitudes)/Gen 5d
  7f SCF=(maxcycles=300, VShift=400) Integral(NoXCTest) MaxDisk=500GB P
 op=Full Pseudo=Read Guess=Read IOp(5/15=2)
 ----------------------------------------------------------------------

 ---
 CrO
 ---
 Symbolic Z-matrix:
 Charge =  0 Multiplicity = 5

                         Standard orientation:
 ---------------------------------------------------------------------
 Center     Atomic      Atomic             Coordinates (Angstroms)
 Number     Number       Type             X           Y           Z
 ---------------------------------------------------------------------
      1         24           0        0.000000    0.000000    0.450000
      2          8           0        0.000000    0.000000   -1.350000
 ---------------------------------------------------------------------

 SCF Done:  E(ROHF) =  -101.867406088     A.U. after   78 cycles
 E2 =    -0.8488674931D+00 EUMP2 =    -0.10271627358153D+03
 CCSD(T)
 CCSD(T)= -0.10276996585D+03

 Unable to determine electronic state:  an orbital has unidentified symmetry.
 Alpha  occ. eigenvalues --   -3.77028  -2.51986  -2.47077  -2.46208  -1.09746
 Alpha  occ. eigenvalues --   -0.57320  -0.55854  -0.55173  -0.52025  -0.34135
 Alpha  occ. eigenvalues --   -0.32787  -0.32605
 Alpha virt. eigenvalues --   -0.04637   0.00704   0.01364   0.01769   0.03725
 Alpha virt. eigenvalues --    0.04976   0.06202   0.07410   0.07417   0.07632
 Alpha virt. eigenvalues --    0.08348   0.08730   0.12950   0.13858   0.15556

 Mulliken charges and spin densities:
               1          2
     1  Cr   1.181828   3.940730
     2  O   -1.181828   0.059270
 Sum of Mulliken charges =  -0.00000   4.00000

 Dipole moment (field-independent basis, Debye):
    X=              0.0000    Y=              0.0000    Z=              9.7902  Tot=              9.7902
 Quadrupole moment (field-independent basis, Debye-Ang):
   XX=            -19.6280   YY=            -18.7916   ZZ=            -24.0556
   XY=              0.0000   XZ=              0.0000   YZ=              0.0000

 \\#P ROCCSD(T)=(maxcyc=150, Full, SaveAmplitudes, ReadAmplitudes)/Gen
 284199\CCSD=-102.7181401\CCSD(T)=-102.7699658\RMSD=9.577e-09\PG=C*V [C
 Normal termination of Gaussian 16 at Sun Mar 18 18:43:57 2018.
