 Gaussian 16, Revision A.03,
 Gaussian 16:  ES64L-G16RevA.03 25-Dec-2016

 ----------------------------------------------------------------------
 #P ROCCSD(T)=(MaxCyc=150, Full)/Gen SCF=(maxcycle=400, vshift=200) Pse
 udo=Read Integral(NoXCTest) Pop=Regular MaxDisk=500GB Guess=Read IOp(5
 /15=2)
 ----------------------------------------------------------------------

 ---
 ZnH
 ---
 Symbolic Z-matrix:
 Charge =  0 Multiplicity = 2

                         Standard orientation:
 ---------------------------------------------------------------------
 Center     Atomic      Atomic             Coordinates (Angstroms)
 Number     Number       Type             X           Y           Z
 ---------------------------------------------------------------------
      1         30           0        0.000000    0.000000    0.058065
      2          1           0        0.000000    0.000000   -1.741935
 ---------------------------------------------------------------------

 SCF Done:  E(ROHF) =  -226.483692522     A.U. after   19 cycles
 E2 =    -0.1032308234D+01 EUMP2 =    -0.22751600075635D+03
 CCSD(T)
 CCSD(T)= -0.22746993606D+03

 The electronic state is 2-SG.
 Alpha  occ. eigenvalues --   -5.90372  -3.97587  -3.97587  -3.97292  -0.80494
 Alpha  occ. eigenvalues --   -0.80494  -0.80110  -0.79986  -0.79986  -0.43730
 Alpha  occ. eigenvalues --   -0.28426
 Alpha virt. eigenvalues --    0.01970   0.01970   0.02964   0.03812   0.07505
 Alpha virt. eigenvalues --    0.07505   0.08749   0.15814   0.17168   0.23773
 Alpha virt. eigenvalues --    0.23773   0.24801   0.24801   0.25127   0.29509

 Mulliken charges and spin densities:
               1          2
     1  Zn   0.360058   0.901536
     2  H   -0.360058   0.098464
 Sum of Mulliken charges =  -0.00000   1.00000

 Dipole moment (field-independent basis, Debye):
    X=              0.0000    Y=              0.0000    Z=              1.4086  Tot=              1.4086
 Quadrupole moment (field-independent basis, Debye-Ang):
   XX=            -14.7839   YY=            -14.7839   ZZ=            -21.8588
   XY=              0.0000   XZ=              0.0000   YZ=              0.0000

 \\#P ROCCSD(T)=(MaxCyc=150, Full)/Gen SCF=(maxcycle=400, vshift=200) P
 Normal termination of Gaussian 16 at Sat Apr 21 10:27:17 2018.
