 Gaussian 16, Revision A.03,
 Gaussian 16:  ES64L-G16RevA.03 25-Dec-2016

 ----------------------------------------------------------------------
 #P ROCCSD(T)=(MaxCyc=150, Full)/Gen SCF=(maxcycle=400, vshift=200) Pse
 udo=Read Integral(NoXCTest) Pop=Regular MaxDisk=500GB Guess=Read IOp(5
 /15=2)
 ----------------------------------------------------------------------

 ---
 ZnH
 ---
 Symbolic Z-matrix:
 Charge =  0 Multiplicity = 2

                         Standard orientation:
 ---------------------------------------------------------------------
 Center     Atomic      Atomic             Coordinates (Angstroms)
 Number     Number       Type             X           Y           Z
 ---------------------------------------------------------------------
      1         30           0        0.000000    0.000000    0.058065
      2          1           0        0.000000    0.000000   -1.741935
 ---------------------------------------------------------------------

 SCF Done:  E(ROHF) =  -226.484841407     A.U. after   18 cycles
 E2 =    -0.1086781848D+01 EUMP2 =    -0.22757162325493D+03
 CCSD(T)
 CCSD(T)= -0.22752472581D+03

 The electronic state is 2-SG.
 Alpha  occ. eigenvalues --   -5.90366  -3.97573  -3.97573  -3.97284  -0.80490
 Alpha  occ. eigenvalues --   -0.80490  -0.80111  -0.79986  -0.79986  -0.43728
 Alpha  occ. eigenvalues --   -0.28429
 Alpha virt. eigenvalues --    0.01855   0.01855   0.02852   0.03440   0.06560
 Alpha virt. eigenvalues --    0.06560   0.07757   0.13861   0.16316   0.17909
 Alpha virt. eigenvalues --    0.17909   0.17976   0.17976   0.20829   0.23412

 Mulliken charges and spin densities:
               1          2
     1  Zn   0.319436   0.898138
     2  H   -0.319436   0.101862
 Sum of Mulliken charges =  -0.00000   1.00000

 Dipole moment (field-independent basis, Debye):
    X=              0.0000    Y=              0.0000    Z=              1.4117  Tot=              1.4117
 Quadrupole moment (field-independent basis, Debye-Ang):
   XX=            -14.7818   YY=            -14.7818   ZZ=            -21.8560
   XY=              0.0000   XZ=              0.0000   YZ=              0.0000

 \\#P ROCCSD(T)=(MaxCyc=150, Full)/Gen SCF=(maxcycle=400, vshift=200) P
 CCSD(T)=-227.5247258\RMSD=7.217e-09\PG=C*V [C*(H1Zn1)]\\@
 Normal termination of Gaussian 16 at Sat Apr 21 11:20:08 2018.
