 Gaussian 16, Revision A.03,
 Gaussian 16:  ES64L-G16RevA.03 25-Dec-2016

 ----------------------------------------------------------------------
 #P ROCCSD(T)=(MaxCyc=150, Full)/Gen SCF=(maxcycle=400, vshift=200) Pse
 udo=Read Integral(NoXCTest) Pop=Regular MaxDisk=500GB Guess=Read IOp(5
 /15=2)
 ----------------------------------------------------------------------

 ---
 ZnH
 ---
 Symbolic Z-matrix:
 Charge =  0 Multiplicity = 2

                         Standard orientation:
 ---------------------------------------------------------------------
 Center     Atomic      Atomic             Coordinates (Angstroms)
 Number     Number       Type             X           Y           Z
 ---------------------------------------------------------------------
      1         30           0        0.000000    0.000000    0.058065
      2          1           0        0.000000    0.000000   -1.741935
 ---------------------------------------------------------------------

 SCF Done:  E(ROHF) =  -226.484950586     A.U. after   19 cycles
 E2 =    -0.1113231665D+01 EUMP2 =    -0.22759818225111D+03
 CCSD(T)
 CCSD(T)= -0.22754933655D+03

 The electronic state is 2-SG.
 Alpha  occ. eigenvalues --   -5.90368  -3.97573  -3.97573  -3.97285  -0.80490
 Alpha  occ. eigenvalues --   -0.80490  -0.80111  -0.79986  -0.79986  -0.43728
 Alpha  occ. eigenvalues --   -0.28431
 Alpha virt. eigenvalues --    0.01797   0.01797   0.02372   0.03218   0.06144
 Alpha virt. eigenvalues --    0.06144   0.06752   0.12152   0.12760   0.15339
 Alpha virt. eigenvalues --    0.15339   0.15353   0.15353   0.17836   0.20966

 Mulliken charges and spin densities:
               1          2
     1  Zn   0.281879   0.897001
     2  H   -0.281879   0.102999
 Sum of Mulliken charges =  -0.00000   1.00000

 Dipole moment (field-independent basis, Debye):
    X=              0.0000    Y=              0.0000    Z=              1.4123  Tot=              1.4123
 Quadrupole moment (field-independent basis, Debye-Ang):
   XX=            -14.7813   YY=            -14.7813   ZZ=            -21.8538
   XY=              0.0000   XZ=              0.0000   YZ=              0.0000

 \\#P ROCCSD(T)=(MaxCyc=150, Full)/Gen SCF=(maxcycle=400, vshift=200) P
 CCSD(T)=-227.5493366\RMSD=2.406e-09\PG=C*V [C*(H1Zn1)]\\@
 Normal termination of Gaussian 16 at Mon Apr 30 08:35:02 2018.
