 Gaussian 16, Revision A.03,
 Gaussian 16:  ES64L-G16RevA.03 25-Dec-2016

 ----------------------------------------------------------------------
 #P ROCCSD(T)=(maxcyc=150, Full, SaveAmplitudes, ReadAmplitudes)/Gen 5d
  7f SCF=(maxcycles=300, VShift=400) Integral(NoXCTest) MaxDisk=500GB P
 op=Full Pseudo=Read Guess=Read IOp(5/15=2)
 ----------------------------------------------------------------------

 ---
 MnH
 ---
 Symbolic Z-matrix:
 Charge =  0 Multiplicity = 7

                         Standard orientation:
 ---------------------------------------------------------------------
 Center     Atomic      Atomic             Coordinates (Angstroms)
 Number     Number       Type             X           Y           Z
 ---------------------------------------------------------------------
      1         25           0        0.000000    0.000000    0.057692
      2          1           0        0.000000    0.000000   -1.442308
 ---------------------------------------------------------------------

 SCF Done:  E(ROHF) =  -104.236775886     A.U. after   42 cycles
 E2 =    -0.5826298399D+00 EUMP2 =    -0.10481940572614D+03
 CCSD(T)
 CCSD(T)= -0.10484084890D+03

 The electronic state is 7-SG.
 Alpha  occ. eigenvalues --   -4.13566  -2.76321  -2.76272  -2.76272  -0.65500
 Alpha  occ. eigenvalues --   -0.64706  -0.64706  -0.64156  -0.64156  -0.41823
 Alpha  occ. eigenvalues --   -0.25246
 Alpha virt. eigenvalues --    0.01352   0.01352   0.02256   0.03194   0.05842
 Alpha virt. eigenvalues --    0.05842   0.08451   0.08499   0.08499   0.08959
 Alpha virt. eigenvalues --    0.08959   0.09399   0.14137   0.20646   0.22822

 Mulliken charges and spin densities:
               1          2
     1  Mn   0.441870   5.954708
     2  H   -0.441870   0.045292
 Sum of Mulliken charges =  -0.00000   6.00000

 Dipole moment (field-independent basis, Debye):
    X=              0.0000    Y=              0.0000    Z=              0.6279  Tot=              0.6279
 Quadrupole moment (field-independent basis, Debye-Ang):
   XX=            -15.9736   YY=            -15.9736   ZZ=            -25.6317
   XY=              0.0000   XZ=              0.0000   YZ=              0.0000

 \\#P ROCCSD(T)=(maxcyc=150, Full, SaveAmplitudes, ReadAmplitudes)/Gen
 4SDQ=-104.8240477\CCSD=-104.8247607\CCSD(T)=-104.8408489\RMSD=9.543e-0
 Normal termination of Gaussian 16 at Wed Apr  4 06:48:36 2018.
