 Gaussian 16, Revision A.03,
 Gaussian 16:  ES64L-G16RevA.03 25-Dec-2016

 ----------------------------------------------------------------------
 #P ROCCSD(T)=(MaxCyc=150, Full)/Gen SCF=(maxcycle=400) Integral(DKHSO,
  NoXCTest) Pop=Regular MaxDisk=500GB Guess=Read IOp(5/15=2)
 ----------------------------------------------------------------------

 ---
 CuO
 ---
 Symbolic Z-matrix:
 Charge =  0 Multiplicity = 2

                         Standard orientation:
 ---------------------------------------------------------------------
 Center     Atomic      Atomic             Coordinates (Angstroms)
 Number     Number       Type             X           Y           Z
 ---------------------------------------------------------------------
      1         29           0        0.000000    0.000000    0.389189
      2          8           0        0.000000    0.000000   -1.410811
 ---------------------------------------------------------------------

 SCF Done:  E(ROHF) =  -1728.05310772     A.U. after   18 cycles
 E2 =    -0.1842647196D+01 EUMP2 =    -0.17298957549169D+04
 CCSD(T)
 CCSD(T)= -0.17298041684D+04

 Unable to determine electronic state:  an orbital has unidentified symmetry.
 Alpha  occ. eigenvalues -- -332.52339 -41.69704 -35.83887 -35.83778 -35.83476
 Alpha  occ. eigenvalues --  -20.52593  -5.19420  -3.40287  -3.40050  -3.39857
 Alpha  occ. eigenvalues --   -1.20867  -0.56443  -0.53797  -0.53324  -0.51903
 Alpha  occ. eigenvalues --   -0.51902  -0.48055  -0.41592  -0.40647
 Alpha virt. eigenvalues --   -0.01431   0.02495   0.02622   0.03462   0.04397
 Alpha virt. eigenvalues --    0.08761   0.09000   0.11584   0.13281   0.13287
 Alpha virt. eigenvalues --    0.14494   0.14579   0.15048   0.18929   0.21293

 Mulliken charges and spin densities:
               1          2
     1  Cu   0.758228   0.014249
     2  O   -0.758228   0.985751
 Sum of Mulliken charges =   0.00000   1.00000

 Dipole moment (field-independent basis, Debye):
    X=              0.0000    Y=              0.0000    Z=              5.9719  Tot=              5.9719
 Quadrupole moment (field-independent basis, Debye-Ang):
   XX=            -17.3306   YY=            -15.7846   ZZ=            -21.1831
   XY=              0.0000   XZ=              0.0000   YZ=              0.0000

 \\#P ROCCSD(T)=(MaxCyc=150, Full)/Gen SCF=(maxcycle=400) Integral(DKHS
 .8957549\MP4SDQ=-1729.8359022\CCSD=-1729.7546595\CCSD(T)=-1729.8041684
 Normal termination of Gaussian 16 at Sun Mar 25 17:40:00 2018.
