 Gaussian 16, Revision A.03,
 Gaussian 16:  ES64L-G16RevA.03 25-Dec-2016

 ----------------------------------------------------------------------
 #P ROCCSD(T)=(maxcyc=150, Full, SaveAmplitudes, ReadAmplitudes)/Gen 5d
  7f SCF=(maxcycles=300) Integral(NoXCTest) MaxDisk=500GB Pop=Regular P
 seudo=Read Guess=Read
 ----------------------------------------------------------------------

 ---
 CrH
 ---
 Symbolic Z-matrix:
 Charge =  0 Multiplicity = 6

                         Standard orientation:
 ---------------------------------------------------------------------
 Center     Atomic      Atomic             Coordinates (Angstroms)
 Number     Number       Type             X           Y           Z
 ---------------------------------------------------------------------
      1         24           0        0.000000    0.000000    0.080000
      2          1           0        0.000000    0.000000   -1.920000
 ---------------------------------------------------------------------

 SCF Done:  E(ROHF) =  -86.3650131572     A.U. after   26 cycles
 E2 =    -0.5349192373D+00 EUMP2 =    -0.86899932394500D+02
 CCSD(T)
 CCSD(T)= -0.86943158603D+02

 The electronic state is 6-SG.
 Alpha  occ. eigenvalues --   -3.87956  -2.59966  -2.59966  -2.55143  -0.53006
 Alpha  occ. eigenvalues --   -0.53006  -0.49874  -0.49874  -0.38613  -0.27615
 Alpha virt. eigenvalues --    0.00936   0.00936   0.01844   0.02510   0.04532
 Alpha virt. eigenvalues --    0.04637   0.04637   0.05292   0.05292   0.05653
 Alpha virt. eigenvalues --    0.05653   0.06764   0.09565   0.12026   0.16204

 Mulliken charges and spin densities:
               1          2
     1  Cr   0.325820   4.974013
     2  H   -0.325820   0.025987
 Sum of Mulliken charges =  -0.00000   5.00000

 Dipole moment (field-independent basis, Debye):
    X=              0.0000    Y=              0.0000    Z=              2.8569  Tot=              2.8569
 Quadrupole moment (field-independent basis, Debye-Ang):
   XX=            -17.4337   YY=            -17.4337   ZZ=            -26.7899
   XY=              0.0000   XZ=              0.0000   YZ=              0.0000

 \\#P ROCCSD(T)=(maxcyc=150, Full, SaveAmplitudes, ReadAmplitudes)/Gen
 50132\PMP2-0=-86.8999324\CCSD=-86.926061\CCSD(T)=-86.9431586\RMSD=6.90
 Normal termination of Gaussian 16 at Mon Feb 26 18:44:06 2018.
