 Gaussian 16, Revision A.03,
 Gaussian 16:  ES64L-G16RevA.03 25-Dec-2016

 ----------------------------------------------------------------------
 #P ROCCSD(T)=(maxcyc=150, Full, SaveAmplitudes, ReadAmplitudes)/Gen 5d
  7f SCF=(maxcycles=300) Integral(NoXCTest) MaxDisk=500GB Pop=Regular P
 seudo=Read Guess=Read
 ----------------------------------------------------------------------

 ---
 CrO
 ---
 Symbolic Z-matrix:
 Charge =  0 Multiplicity = 5

                         Standard orientation:
 ---------------------------------------------------------------------
 Center     Atomic      Atomic             Coordinates (Angstroms)
 Number     Number       Type             X           Y           Z
 ---------------------------------------------------------------------
      1         24           0        0.000000    0.000000    0.400000
      2          8           0        0.000000    0.000000   -1.200000
 ---------------------------------------------------------------------

 SCF Done:  E(ROHF) =  -101.843094574     A.U. after   25 cycles
 E2 =    -0.9163381525D+00 EUMP2 =    -0.10275943272599D+03
 CCSD(T)
 CCSD(T)= -0.10278379997D+03

 Unable to determine electronic state:  an orbital has unidentified symmetry.
 Alpha  occ. eigenvalues --   -3.79262  -2.53539  -2.49606  -2.46313  -1.16949
 Alpha  occ. eigenvalues --   -0.61870  -0.58383  -0.57141  -0.48014  -0.43176
 Alpha  occ. eigenvalues --   -0.38667  -0.31710
 Alpha virt. eigenvalues --   -0.00237   0.00530   0.01530   0.02655   0.03499
 Alpha virt. eigenvalues --    0.04064   0.05310   0.05310   0.05439   0.05799
 Alpha virt. eigenvalues --    0.05858   0.06309   0.10800   0.12622   0.12723

 Mulliken charges and spin densities:
               1          2
     1  Cr   1.059640   3.911400
     2  O   -1.059640   0.088600
 Sum of Mulliken charges =  -0.00000   4.00000

 Dipole moment (field-independent basis, Debye):
    X=              0.0000    Y=              0.0000    Z=              6.1306  Tot=              6.1306
 Quadrupole moment (field-independent basis, Debye-Ang):
   XX=            -20.6996   YY=            -19.6156   ZZ=            -24.0430
   XY=              0.0000   XZ=              0.0000   YZ=              0.0000

 \\#P ROCCSD(T)=(maxcyc=150, Full, SaveAmplitudes, ReadAmplitudes)/Gen
 MP2-0=-102.7594327\CCSD=-102.7317289\CCSD(T)=-102.7838\RMSD=6.964e-09\
 Normal termination of Gaussian 16 at Mon Mar 12 16:13:23 2018.
