 Gaussian 16, Revision A.03,
 Gaussian 16:  ES64L-G16RevA.03 25-Dec-2016

 ----------------------------------------------------------------------
 #P ROCCSD(T)=(maxcyc=150, Full, SaveAmplitudes, ReadAmplitudes)/Gen 5d
  7f SCF=(maxcycles=300) Integral(NoXCTest) MaxDisk=500GB Pop=Regular P
 seudo=Read Guess=Read
 ----------------------------------------------------------------------

 ---
 CrH
 ---
 Symbolic Z-matrix:
 Charge =  0 Multiplicity = 6

                         Standard orientation:
 ---------------------------------------------------------------------
 Center     Atomic      Atomic             Coordinates (Angstroms)
 Number     Number       Type             X           Y           Z
 ---------------------------------------------------------------------
      1         24           0        0.000000    0.000000    0.060000
      2          1           0        0.000000    0.000000   -1.440000
 ---------------------------------------------------------------------

 SCF Done:  E(ROHF) =  -86.8661984387     A.U. after   25 cycles
 E2 =    -0.5868300187D+00 EUMP2 =    -0.87453028457352D+02
 CCSD(T)
 CCSD(T)= -0.87494105095D+02

 The electronic state is 6-SG.
 Alpha  occ. eigenvalues --   -3.64703  -2.41091  -2.41091  -2.36998  -0.51807
 Alpha  occ. eigenvalues --   -0.51807  -0.48689  -0.48689  -0.42958  -0.25580
 Alpha virt. eigenvalues --    0.01371   0.01371   0.02031   0.02274   0.04635
 Alpha virt. eigenvalues --    0.05148   0.05148   0.05385   0.05385   0.05661
 Alpha virt. eigenvalues --    0.05661   0.06690   0.09560   0.12601   0.16797

 Mulliken charges and spin densities:
               1          2
     1  Cr   0.371202   4.982608
     2  H   -0.371202   0.017392
 Sum of Mulliken charges =  -0.00000   5.00000

 Dipole moment (field-independent basis, Debye):
    X=              0.0000    Y=              0.0000    Z=              1.7637  Tot=              1.7637
 Quadrupole moment (field-independent basis, Debye-Ang):
   XX=            -16.7955   YY=            -16.7955   ZZ=            -22.3448
   XY=              0.0000   XZ=              0.0000   YZ=              0.0000

 \\#P ROCCSD(T)=(maxcyc=150, Full, SaveAmplitudes, ReadAmplitudes)/Gen
 661984\PMP2-0=-87.4530285\CCSD=-87.474495\CCSD(T)=-87.4941051\RMSD=7.3
 Normal termination of Gaussian 16 at Mon Feb 26 03:39:19 2018.
