 Gaussian 16, Revision A.03,
 Gaussian 16:  ES64L-G16RevA.03 25-Dec-2016

 ----------------------------------------------------------------------
 #P ROCCSD(T)=(maxcyc=150, Full, SaveAmplitudes, ReadAmplitudes)/Gen 5d
  7f SCF=(maxcycles=300) Integral(NoXCTest) MaxDisk=500GB Pop=Regular P
 seudo=Read Guess=Read
 ----------------------------------------------------------------------

 ---
 MnH
 ---
 Symbolic Z-matrix:
 Charge =  0 Multiplicity = 7

                         Standard orientation:
 ---------------------------------------------------------------------
 Center     Atomic      Atomic             Coordinates (Angstroms)
 Number     Number       Type             X           Y           Z
 ---------------------------------------------------------------------
      1         25           0        0.000000    0.000000    0.076923
      2          1           0        0.000000    0.000000   -1.923077
 ---------------------------------------------------------------------

 SCF Done:  E(ROHF) =  -104.239880196     A.U. after   20 cycles
 E2 =    -0.5956653612D+00 EUMP2 =    -0.10483554555674D+03
 CCSD(T)
 CCSD(T)= -0.10485868776D+03

 The electronic state is 7-SG.
 Alpha  occ. eigenvalues --   -4.19073  -2.78055  -2.78055  -2.77783  -0.66531
 Alpha  occ. eigenvalues --   -0.66531  -0.65873  -0.65873  -0.65829  -0.38769
 Alpha  occ. eigenvalues --   -0.26972
 Alpha virt. eigenvalues --    0.00990   0.00990   0.02139   0.02896   0.04891
 Alpha virt. eigenvalues --    0.04891   0.05569   0.05754   0.05754   0.06198
 Alpha virt. eigenvalues --    0.06198   0.09625   0.12122   0.13649   0.18024

 Mulliken charges and spin densities:
               1          2
     1  Mn   0.381117   5.950970
     2  H   -0.381117   0.049030
 Sum of Mulliken charges =  -0.00000   6.00000

 Dipole moment (field-independent basis, Debye):
    X=              0.0000    Y=              0.0000    Z=              2.4553  Tot=              2.4553
 Quadrupole moment (field-independent basis, Debye-Ang):
   XX=            -16.3728   YY=            -16.3728   ZZ=            -27.9471
   XY=              0.0000   XZ=              0.0000   YZ=              0.0000

 \\#P ROCCSD(T)=(maxcyc=150, Full, SaveAmplitudes, ReadAmplitudes)/Gen
 .2398802\PMP2-0=-104.8355456\CCSD=-104.8422679\CCSD(T)=-104.8586878\RM
 Normal termination of Gaussian 16 at Mon Feb 26 19:14:53 2018.
