 Gaussian 16, Revision A.03,
 Gaussian 16:  ES64L-G16RevA.03 25-Dec-2016

 ----------------------------------------------------------------------
 #P ROCCSD(T)=(maxcyc=150, Full)/Gen 5d 7f SCF=(maxcycles=300) Integral
 (NoXCTest, DKHSO) MaxDisk=500GB Pop=Regular IOp(5/15=2) Guess=Read
 ----------------------------------------------------------------------

 ---
 ScH
 ---
 Symbolic Z-matrix:
 Charge =  0 Multiplicity = 1

                         Standard orientation:
 ---------------------------------------------------------------------
 Center     Atomic      Atomic             Coordinates (Angstroms)
 Number     Number       Type             X           Y           Z
 ---------------------------------------------------------------------
      1         21           0        0.000000    0.000000    0.059091
      2          1           0        0.000000    0.000000   -1.240909
 ---------------------------------------------------------------------

 SCF Done:  E(ROHF) =  -763.760091497     A.U. after   12 cycles
 E2 =    -0.7646633505D+00 EUMP2 =    -0.76452475484708D+03
 CCSD(T)
 CCSD(T)= -0.76455789350D+03

 The electronic state is 1-SG.
 Alpha  occ. eigenvalues -- -166.84690 -19.29372 -15.71758 -15.71758 -15.71082
 Alpha  occ. eigenvalues --   -2.62477  -1.62919  -1.60071  -1.60071  -0.46192
 Alpha  occ. eigenvalues --   -0.21699
 Alpha virt. eigenvalues --    0.01352   0.01352   0.01581   0.02192   0.03483
 Alpha virt. eigenvalues --    0.03912   0.03912   0.03934   0.03934   0.04880
 Alpha virt. eigenvalues --    0.04880   0.05022   0.09267   0.10313   0.10313

 Mulliken charges and spin densities:
               1          2
     1  Sc   0.479890   0.000000
     2  H   -0.479890   0.000000
 Sum of Mulliken charges =  -0.00000   0.00000

 Dipole moment (field-independent basis, Debye):
    X=              0.0000    Y=              0.0000    Z=              0.5920  Tot=              0.5920
 Quadrupole moment (field-independent basis, Debye-Ang):
   XX=            -24.0122   YY=            -24.0122   ZZ=            -23.6691
   XY=              0.0000   XZ=              0.0000   YZ=              0.0000

 P ROCCSD(T)=(maxcyc=150, Full)/Gen 5d 7f SCF=(maxcycles=300) Integral(
 MP2-0=-764.5247548\MP4SDQ=-764.5402846\CCSD=-764.5398234\CCSD(T)=-764.
 Normal termination of Gaussian 16 at Mon Feb 12 20:14:52 2018.
