 Gaussian 16, Revision A.03,
 Gaussian 16:  ES64L-G16RevA.03 25-Dec-2016

 ----------------------------------------------------------------------
 #P ROCCSD(T)=(maxcyc=150, Full, SaveAmplitudes, ReadAmplitudes)/Gen 5d
  7f SCF=(maxcycles=300, VShift=400) Integral(NoXCTest) MaxDisk=500GB P
 op=Full Pseudo=Read Guess=Read IOp(5/15=2)
 ----------------------------------------------------------------------

 ---
 MnH
 ---
 Symbolic Z-matrix:
 Charge =  0 Multiplicity = 7

                         Standard orientation:
 ---------------------------------------------------------------------
 Center     Atomic      Atomic             Coordinates (Angstroms)
 Number     Number       Type             X           Y           Z
 ---------------------------------------------------------------------
      1         25           0        0.000000    0.000000    0.076923
      2          1           0        0.000000    0.000000   -1.923077
 ---------------------------------------------------------------------

 SCF Done:  E(ROHF) =  -104.249716299     A.U. after   33 cycles
 E2 =    -0.5706528316D+00 EUMP2 =    -0.10482036913010D+03
 CCSD(T)
 CCSD(T)= -0.10484451549D+03

 The electronic state is 7-SG.
 Alpha  occ. eigenvalues --   -4.15592  -2.78427  -2.78427  -2.78172  -0.66726
 Alpha  occ. eigenvalues --   -0.66726  -0.66068  -0.66068  -0.66022  -0.38652
 Alpha  occ. eigenvalues --   -0.26950
 Alpha virt. eigenvalues --    0.01014   0.01014   0.02297   0.03135   0.05518
 Alpha virt. eigenvalues --    0.05518   0.07946   0.08369   0.08369   0.08870
 Alpha virt. eigenvalues --    0.08870   0.10350   0.13327   0.18132   0.22387

 Mulliken charges and spin densities:
               1          2
     1  Mn   0.432091   5.954520
     2  H   -0.432091   0.045480
 Sum of Mulliken charges =  -0.00000   6.00000

 Dipole moment (field-independent basis, Debye):
    X=              0.0000    Y=              0.0000    Z=              2.4303  Tot=              2.4303
 Quadrupole moment (field-independent basis, Debye-Ang):
   XX=            -16.3951   YY=            -16.3951   ZZ=            -28.0025
   XY=              0.0000   XZ=              0.0000   YZ=              0.0000

 \\#P ROCCSD(T)=(maxcyc=150, Full, SaveAmplitudes, ReadAmplitudes)/Gen
 SDQ=-104.8277235\CCSD=-104.8289435\CCSD(T)=-104.8445155\RMSD=8.308e-09
 Normal termination of Gaussian 16 at Wed Apr  4 09:13:00 2018.
