 Gaussian 16, Revision A.03,
 Gaussian 16:  ES64L-G16RevA.03 25-Dec-2016

 ----------------------------------------------------------------------
 #P ROCCSD(T)=(MaxCyc=150, Full)/Gen SCF=(maxcycle=400) Pseudo=Read Int
 egral(NoXCTest) Pop=Regular MaxDisk=500GB Guess=Read IOp(5/15=2)
 ----------------------------------------------------------------------

 ---
 CuH
 ---
 Symbolic Z-matrix:
 Charge =  0 Multiplicity = 1

                         Standard orientation:
 ---------------------------------------------------------------------
 Center     Atomic      Atomic             Coordinates (Angstroms)
 Number     Number       Type             X           Y           Z
 ---------------------------------------------------------------------
      1         29           0        0.000000    0.000000    0.056667
      2          1           0        0.000000    0.000000   -1.643333
 ---------------------------------------------------------------------

 SCF Done:  E(ROHF) =  -196.773714810     A.U. after   13 cycles
 E2 =    -0.1102703703D+01 EUMP2 =    -0.19787641851300D+03
 CCSD(T)
 CCSD(T)= -0.19780188584D+03

 The electronic state is 1-SG.
 Alpha  occ. eigenvalues --   -4.93769  -3.34782  -3.34677  -3.34677  -0.49624
 Alpha  occ. eigenvalues --   -0.49624  -0.49488  -0.49488  -0.49465  -0.33241
 Alpha virt. eigenvalues --   -0.00284   0.02868   0.02868   0.03755   0.04932
 Alpha virt. eigenvalues --    0.10017   0.10160   0.10160   0.17090   0.19725
 Alpha virt. eigenvalues --    0.19725   0.20122   0.20122   0.20516   0.25897

 Mulliken charges and spin densities:
               1          2
     1  Cu   0.389168   0.000000
     2  H   -0.389168   0.000000
 Sum of Mulliken charges =  -0.00000   0.00000

 Dipole moment (field-independent basis, Debye):
    X=              0.0000    Y=              0.0000    Z=              4.4310  Tot=              4.4310
 Quadrupole moment (field-independent basis, Debye-Ang):
   XX=            -13.5705   YY=            -13.5705   ZZ=            -17.2020
   XY=              0.0000   XZ=              0.0000   YZ=              0.0000

 P ROCCSD(T)=(MaxCyc=150, Full)/Gen SCF=(maxcycle=400) Pseudo=Read Inte
 2-0=-197.8764185\MP4SDQ=-197.8374832\CCSD=-197.7653437\CCSD(T)=-197.80
 Normal termination of Gaussian 16 at Wed Apr  4 19:00:35 2018.
