 Gaussian 16, Revision A.03,
 Gaussian 16:  ES64L-G16RevA.03 25-Dec-2016

 ----------------------------------------------------------------------
 #P ROCCSD(T)=(MaxCyc=150, Full)/Gen SCF=(maxcycle=400) Pseudo=Read Int
 egral(NoXCTest) Pop=Regular MaxDisk=500GB Guess=Read IOp(5/15=2)
 ----------------------------------------------------------------------

 ---
 CuH
 ---
 Symbolic Z-matrix:
 Charge =  0 Multiplicity = 1

                         Standard orientation:
 ---------------------------------------------------------------------
 Center     Atomic      Atomic             Coordinates (Angstroms)
 Number     Number       Type             X           Y           Z
 ---------------------------------------------------------------------
      1         29           0        0.000000    0.000000    0.056667
      2          1           0        0.000000    0.000000   -1.643333
 ---------------------------------------------------------------------

 SCF Done:  E(ROHF) =  -196.776725886     A.U. after   10 cycles
 E2 =    -0.1154324676D+01 EUMP2 =    -0.19793105056196D+03
 CCSD(T)
 CCSD(T)= -0.19785504867D+03

 The electronic state is 1-SG.
 Alpha  occ. eigenvalues --   -4.93730  -3.34746  -3.34645  -3.34645  -0.49632
 Alpha  occ. eigenvalues --   -0.49632  -0.49494  -0.49494  -0.49465  -0.33248
 Alpha virt. eigenvalues --   -0.00294   0.02576   0.02576   0.03401   0.04611
 Alpha virt. eigenvalues --    0.08805   0.08805   0.08867   0.13374   0.13519
 Alpha virt. eigenvalues --    0.13519   0.13743   0.13743   0.19379   0.21867

 Mulliken charges and spin densities:
               1          2
     1  Cu   0.360113   0.000000
     2  H   -0.360113   0.000000
 Sum of Mulliken charges =  -0.00000   0.00000

 Dipole moment (field-independent basis, Debye):
    X=              0.0000    Y=              0.0000    Z=              4.4213  Tot=              4.4213
 Quadrupole moment (field-independent basis, Debye-Ang):
   XX=            -13.5606   YY=            -13.5606   ZZ=            -17.2218
   XY=              0.0000   XZ=              0.0000   YZ=              0.0000

 P ROCCSD(T)=(MaxCyc=150, Full)/Gen SCF=(maxcycle=400) Pseudo=Read Inte
 2-0=-197.9310506\MP4SDQ=-197.8878791\CCSD=-197.8164535\CCSD(T)=-197.85
 Normal termination of Gaussian 16 at Wed Apr  4 19:53:58 2018.
