 Gaussian 16, Revision A.03,
 Gaussian 16:  ES64L-G16RevA.03 25-Dec-2016

 ----------------------------------------------------------------------
 #P ROCCSD(T)=(MaxCyc=150, Full)/Gen SCF=(maxcycle=400) Pseudo=Read Int
 egral(NoXCTest) Pop=Regular MaxDisk=500GB Guess=Read IOp(5/15=2)
 ----------------------------------------------------------------------

 ---
 CuH
 ---
 Symbolic Z-matrix:
 Charge =  0 Multiplicity = 1

                         Standard orientation:
 ---------------------------------------------------------------------
 Center     Atomic      Atomic             Coordinates (Angstroms)
 Number     Number       Type             X           Y           Z
 ---------------------------------------------------------------------
      1         29           0        0.000000    0.000000    0.056667
      2          1           0        0.000000    0.000000   -1.643333
 ---------------------------------------------------------------------

 SCF Done:  E(ROHF) =  -196.776879583     A.U. after    7 cycles
 E2 =    -0.1178935024D+01 EUMP2 =    -0.19795581460650D+03
 CCSD(T)
 CCSD(T)= -0.19787758528D+03

 The electronic state is 1-SG.
 Alpha  occ. eigenvalues --   -4.93734  -3.34748  -3.34646  -3.34646  -0.49635
 Alpha  occ. eigenvalues --   -0.49635  -0.49496  -0.49496  -0.49467  -0.33249
 Alpha virt. eigenvalues --   -0.00340   0.02494   0.02494   0.03115   0.03891
 Alpha virt. eigenvalues --    0.07666   0.08446   0.08446   0.12156   0.12156
 Alpha virt. eigenvalues --    0.12190   0.12344   0.12344   0.14782   0.18428

 Mulliken charges and spin densities:
               1          2
     1  Cu   0.319704   0.000000
     2  H   -0.319704   0.000000
 Sum of Mulliken charges =  -0.00000   0.00000

 Dipole moment (field-independent basis, Debye):
    X=              0.0000    Y=              0.0000    Z=              4.4195  Tot=              4.4195
 Quadrupole moment (field-independent basis, Debye-Ang):
   XX=            -13.5590   YY=            -13.5590   ZZ=            -17.2246
   XY=              0.0000   XZ=              0.0000   YZ=              0.0000

 P ROCCSD(T)=(MaxCyc=150, Full)/Gen SCF=(maxcycle=400) Pseudo=Read Inte
 2-0=-197.9558146\MP4SDQ=-197.9091988\CCSD=-197.8382403\CCSD(T)=-197.87
 Normal termination of Gaussian 16 at Wed Apr  4 22:46:08 2018.
