 Gaussian 16, Revision A.03,
 Gaussian 16:  ES64L-G16RevA.03 25-Dec-2016

 ----------------------------------------------------------------------
 #P ROHF/Gen 5d 7f SCF=(maxcycles=300, VShift=200) Integral(NoXCTest) M
 axDisk=500GB Pop=Full Pseudo=Read
 ----------------------------------------------------------------------

 ---
 TiO
 ---
 Symbolic Z-matrix:
 Charge =  0 Multiplicity = 3

                         Standard orientation:
 ---------------------------------------------------------------------
 Center     Atomic      Atomic             Coordinates (Angstroms)
 Number     Number       Type             X           Y           Z
 ---------------------------------------------------------------------
      1         22           0        0.000000    0.000000    0.320000
      2          8           0        0.000000    0.000000   -0.880000
 ---------------------------------------------------------------------

 SCF Done:  E(ROHF) =  -73.0360426365     A.U. after   38 cycles

 Unable to determine electronic state:  an orbital has unidentified symmetry.
 Alpha  occ. eigenvalues --   -2.90646  -2.00628  -1.73830  -1.73830  -1.11448
 Alpha  occ. eigenvalues --   -0.65094  -0.65094  -0.52974  -0.05087  -0.01393
 Alpha virt. eigenvalues --    0.01790   0.01790   0.02162   0.02963   0.05151
 Alpha virt. eigenvalues --    0.05273   0.05350   0.05350   0.05449   0.06259
 Alpha virt. eigenvalues --    0.06259   0.08852   0.13059   0.14911   0.15282

 Mulliken charges and spin densities:
               1          2
     1  Ti   0.596387   2.061380
     2  O   -0.596387  -0.061380
 Sum of Mulliken charges =  -0.00000   2.00000

 Dipole moment (field-independent basis, Debye):
    X=              0.0000    Y=              0.0000    Z=             -0.7315  Tot=              0.7315
 Quadrupole moment (field-independent basis, Debye-Ang):
   XX=            -22.5987   YY=            -22.5987   ZZ=            -26.5229
   XY=              0.0000   XZ=              0.0000   YZ=              0.0000

 Normal termination of Gaussian 16 at Sun Mar 18 17:33:14 2018.
