 Gaussian 16, Revision A.03,
 Gaussian 16:  ES64L-G16RevA.03 25-Dec-2016

 ----------------------------------------------------------------------
 #P ROCCSD(T)=(maxcyc=150, Full)/Gen 5d 7f SCF=(maxcycles=300, NoVarAcc
 , VShift=300) MaxDisk=100GB Pop=Regular Pseudo=Read Guess=Read IOp(5/1
 5=2)
 ----------------------------------------------------------------------

 --
 Cr
 --
 Symbolic Z-matrix:
 Charge =  0 Multiplicity = 7

                         Standard orientation:
 ---------------------------------------------------------------------
 Center     Atomic      Atomic             Coordinates (Angstroms)
 Number     Number       Type             X           Y           Z
 ---------------------------------------------------------------------
      1         24           0        0.000000    0.000000    0.000000
 ---------------------------------------------------------------------

 SCF Done:  E(ROHF) =  -86.0477615295     A.U. after   41 cycles
 E2 =    -0.5314458320D+00 EUMP2 =    -0.86579207361505D+02
 CCSD(T)
 CCSD(T)= -0.86590088893D+02

 The electronic state is 7-A1G.
 Alpha  occ. eigenvalues --   -3.54687  -2.29888  -2.29888  -2.29888  -0.36972
 Alpha  occ. eigenvalues --   -0.36972  -0.36972  -0.36972  -0.36972  -0.22549
 Alpha virt. eigenvalues --    0.01791   0.01791   0.01791   0.03176   0.06517
 Alpha virt. eigenvalues --    0.06517   0.06517   0.07931   0.07931   0.07931
 Alpha virt. eigenvalues --    0.07931   0.07931   0.21124   0.23191   0.23191

 Mulliken charges and spin densities:
               1          2
     1  Cr  -0.000000   6.000000
 Sum of Mulliken charges =  -0.00000   6.00000

 Dipole moment (field-independent basis, Debye):
    X=              0.0000    Y=              0.0000    Z=              0.0000  Tot=              0.0000
 Quadrupole moment (field-independent basis, Debye-Ang):
   XX=            -16.4650   YY=            -16.4650   ZZ=            -16.4650
   XY=              0.0000   XZ=             -0.0000   YZ=             -0.0000

 1\1\GINC-C455-074\SP\ROCCSD(T)-Full\Gen\Cr1(7)\AANNABE\19-Apr-2018\0\\
 #P ROCCSD(T)=(maxcyc=150, Full)/Gen 5d 7f SCF=(maxcycles=300, NoVarAcc
 , VShift=300) MaxDisk=100GB Pop=Regular Pseudo=Read Guess=Read IOp(5/1
 5=2)\\Cr\\0,7\Cr,0,0.,0.,0.\\Version=ES64L-G16RevA.03\State=7-A1G\HF=-
 86.0477615\MP2=-86.5792074\MP3=-86.5704303\PUHF=-86.0477615\PMP2-0=-86
 .5792074\MP4SDQ=-86.5749855\CCSD=-86.5737628\CCSD(T)=-86.5900889\RMSD=
 9.294e-09\PG=OH [O(Cr1)]\\@

 Normal termination of Gaussian 16 at Thu Apr 19 10:23:04 2018.
