 Gaussian 16, Revision A.03,
 Gaussian 16:  ES64L-G16RevA.03 25-Dec-2016

 ----------------------------------------------------------------------
 #P ROCCSD(T)=(maxcyc=150, Full)/Gen 5d 7f SCF=(maxcycles=300, NoVarAcc
 , VShift=300) MaxDisk=100GB Pop=Regular Pseudo=Read Guess=Read IOp(5/1
 5=2)
 ----------------------------------------------------------------------

 --
 Cr
 --
 Symbolic Z-matrix:
 Charge =  0 Multiplicity = 7

                         Standard orientation:
 ---------------------------------------------------------------------
 Center     Atomic      Atomic             Coordinates (Angstroms)
 Number     Number       Type             X           Y           Z
 ---------------------------------------------------------------------
      1         24           0        0.000000    0.000000    0.000000
 ---------------------------------------------------------------------

 SCF Done:  E(ROHF) =  -85.8401024308     A.U. after   35 cycles
 E2 =    -0.5523271385D+00 EUMP2 =    -0.86392429569322D+02
 CCSD(T)
 CCSD(T)= -0.86402733964D+02

 The electronic state is 7-A1G.
 Alpha  occ. eigenvalues --   -3.57865  -2.29187  -2.29187  -2.29187  -0.36908
 Alpha  occ. eigenvalues --   -0.36908  -0.36908  -0.36908  -0.36908  -0.22704
 Alpha virt. eigenvalues --    0.01732   0.01732   0.01732   0.02411   0.05526
 Alpha virt. eigenvalues --    0.05526   0.05526   0.05526   0.05526   0.05968
 Alpha virt. eigenvalues --    0.05968   0.05968   0.12696   0.17971   0.17971

 Mulliken charges and spin densities:
               1          2
     1  Cr  -0.000000   6.000000
 Sum of Mulliken charges =  -0.00000   6.00000

 Dipole moment (field-independent basis, Debye):
    X=              0.0000    Y=              0.0000    Z=              0.0000  Tot=              0.0000
 Quadrupole moment (field-independent basis, Debye-Ang):
   XX=            -16.4431   YY=            -16.4431   ZZ=            -16.4431
   XY=             -0.0000   XZ=              0.0000   YZ=              0.0000

 1\1\GINC-C455-023\SP\ROCCSD(T)-Full\Gen\Cr1(7)\AANNABE\05-Apr-2018\0\\
 #P ROCCSD(T)=(maxcyc=150, Full)/Gen 5d 7f SCF=(maxcycles=300, NoVarAcc
 , VShift=300) MaxDisk=100GB Pop=Regular Pseudo=Read Guess=Read IOp(5/1
 5=2)\\Cr\\0,7\Cr,0,0.,0.,0.\\Version=ES64L-G16RevA.03\State=7-A1G\HF=-
 85.8401024\MP2=-86.3924296\MP3=-86.3832185\PUHF=-85.8401024\PMP2-0=-86
 .3924296\MP4SDQ=-86.386644\CCSD=-86.3856152\CCSD(T)=-86.402734\RMSD=9.
 350e-09\PG=OH [O(Cr1)]\\@

 Normal termination of Gaussian 16 at Thu Apr  5 17:35:57 2018.
