 Gaussian 16, Revision A.03,
 Gaussian 16:  ES64L-G16RevA.03 25-Dec-2016

 ----------------------------------------------------------------------
 #P ROCCSD(T)=(MaxCyc=150, FrzINGC)/Gen SCF=(maxcycle=400, vshift=200)
 Integral(DKHSO, NoXCTest) Pop=Regular MaxDisk=500GB Guess=Read IOp(5/1
 5=2)
 ----------------------------------------------------------------------

 ---
 CuH
 ---
 Symbolic Z-matrix:
 Charge =  0 Multiplicity = 1

                         Standard orientation:
 ---------------------------------------------------------------------
 Center     Atomic      Atomic             Coordinates (Angstroms)
 Number     Number       Type             X           Y           Z
 ---------------------------------------------------------------------
      1         29           0        0.000000    0.000000    0.043333
      2          1           0        0.000000    0.000000   -1.256667
 ---------------------------------------------------------------------

 SCF Done:  E(ROHF) =  -1653.69773033     A.U. after   16 cycles
 E2 =    -0.1096804340D+01 EUMP2 =    -0.16547945346741D+04
 CCSD(T)
 CCSD(T)= -0.16546941407D+04

 The electronic state is 1-SG.
 Alpha  occ. eigenvalues -- -332.51586 -41.69409 -35.83318 -35.83279 -35.83279
 Alpha  occ. eigenvalues --   -5.18759  -3.39803  -3.38736  -3.38736  -0.53415
 Alpha  occ. eigenvalues --   -0.51243  -0.51243  -0.50422  -0.50422  -0.33887
 Alpha virt. eigenvalues --    0.00502   0.02966   0.02966   0.03417   0.05823
 Alpha virt. eigenvalues --    0.10054   0.10362   0.10362   0.17251   0.19422
 Alpha virt. eigenvalues --    0.19422   0.20531   0.20531   0.21993   0.25959

 Mulliken charges and spin densities:
               1          2
     1  Cu   0.342340   0.000000
     2  H   -0.342340   0.000000
 Sum of Mulliken charges =   0.00000   0.00000

 Dipole moment (field-independent basis, Debye):
    X=              0.0000    Y=              0.0000    Z=              3.5689  Tot=              3.5689
 Quadrupole moment (field-independent basis, Debye-Ang):
   XX=            -14.0342   YY=            -14.0342   ZZ=            -15.2085
   XY=              0.0000   XZ=              0.0000   YZ=              0.0000

  ROCCSD(T)=(MaxCyc=150, FrzINGC)/Gen SCF=(maxcycle=400, vshift=200) In
 CCSD(T)=-1654.6941407\RMSD=8.154e-09\PG=C*V [C*(H1Cu1)]\\@
 Normal termination of Gaussian 16 at Wed Apr  4 18:59:29 2018.
