 Gaussian 16, Revision A.03,
 Gaussian 16:  ES64L-G16RevA.03 25-Dec-2016

 ----------------------------------------------------------------------
 #P ROCCSD(T)=(MaxCyc=150, FrzINGC)/Gen SCF=(maxcycle=400, vshift=200)
 Integral(DKHSO, NoXCTest) Pop=Regular MaxDisk=500GB Guess=Read IOp(5/1
 5=2)
 ----------------------------------------------------------------------

 ---
 CuH
 ---
 Symbolic Z-matrix:
 Charge =  0 Multiplicity = 1

                         Standard orientation:
 ---------------------------------------------------------------------
 Center     Atomic      Atomic             Coordinates (Angstroms)
 Number     Number       Type             X           Y           Z
 ---------------------------------------------------------------------
      1         29           0        0.000000    0.000000    0.043333
      2          1           0        0.000000    0.000000   -1.256667
 ---------------------------------------------------------------------

 SCF Done:  E(ROHF) =  -1653.70005133     A.U. after   10 cycles
 E2 =    -0.1147345845D+01 EUMP2 =    -0.16548473971755D+04
 CCSD(T)
 CCSD(T)= -0.16547456733D+04

 The electronic state is 1-SG.
 Alpha  occ. eigenvalues -- -332.51589 -41.69390 -35.83295 -35.83257 -35.83257
 Alpha  occ. eigenvalues --   -5.18749  -3.39789  -3.38728  -3.38728  -0.53414
 Alpha  occ. eigenvalues --   -0.51247  -0.51247  -0.50431  -0.50431  -0.33891
 Alpha virt. eigenvalues --    0.00475   0.02676   0.02676   0.03094   0.05418
 Alpha virt. eigenvalues --    0.09010   0.09010   0.09065   0.13443   0.13443
 Alpha virt. eigenvalues --    0.13465   0.14002   0.14002   0.20310   0.22566

 Mulliken charges and spin densities:
               1          2
     1  Cu   0.312197  -0.000000
     2  H   -0.312197  -0.000000
 Sum of Mulliken charges =  -0.00000  -0.00000

 Dipole moment (field-independent basis, Debye):
    X=              0.0000    Y=              0.0000    Z=              3.5589  Tot=              3.5589
 Quadrupole moment (field-independent basis, Debye-Ang):
   XX=            -14.0241   YY=            -14.0241   ZZ=            -15.2237
   XY=             -0.0000   XZ=              0.0000   YZ=             -0.0000

  ROCCSD(T)=(MaxCyc=150, FrzINGC)/Gen SCF=(maxcycle=400, vshift=200) In
 \CCSD(T)=-1654.7456733\RMSD=5.687e-09\PG=C*V [C*(H1Cu1)]\\@
 Normal termination of Gaussian 16 at Wed Apr  4 20:27:46 2018.
