 Gaussian 16, Revision A.03,
 Gaussian 16:  ES64L-G16RevA.03 25-Dec-2016

 ----------------------------------------------------------------------
 #P ROCCSD(T)=(maxcyc=150, Full)/Gen 5d 7f SCF=(maxcycles=300, NoVarAcc
 , VShift=300) MaxDisk=100GB Pop=Regular Pseudo=Read Guess=Read IOp(5/1
 5=2)
 ----------------------------------------------------------------------

 --
 Cr
 --
 Symbolic Z-matrix:
 Charge =  0 Multiplicity = 7

                         Standard orientation:
 ---------------------------------------------------------------------
 Center     Atomic      Atomic             Coordinates (Angstroms)
 Number     Number       Type             X           Y           Z
 ---------------------------------------------------------------------
      1         24           0        0.000000    0.000000    0.000000
 ---------------------------------------------------------------------

 SCF Done:  E(ROHF) =  -85.8394764560     A.U. after   43 cycles
 E2 =    -0.5274561738D+00 EUMP2 =    -0.86366932629779D+02
 CCSD(T)
 CCSD(T)= -0.86378004757D+02

 The electronic state is 7-A1G.
 Alpha  occ. eigenvalues --   -3.57875  -2.29199  -2.29199  -2.29199  -0.36908
 Alpha  occ. eigenvalues --   -0.36908  -0.36908  -0.36908  -0.36908  -0.22703
 Alpha virt. eigenvalues --    0.01815   0.01815   0.01815   0.03164   0.06556
 Alpha virt. eigenvalues --    0.06556   0.06556   0.07938   0.07938   0.07938
 Alpha virt. eigenvalues --    0.07938   0.07938   0.21018   0.23264   0.23264

 Mulliken charges and spin densities:
               1          2
     1  Cr   0.000000   6.000000
 Sum of Mulliken charges =   0.00000   6.00000

 Dipole moment (field-independent basis, Debye):
    X=              0.0000    Y=              0.0000    Z=              0.0000  Tot=              0.0000
 Quadrupole moment (field-independent basis, Debye-Ang):
   XX=            -16.4562   YY=            -16.4562   ZZ=            -16.4562
   XY=              0.0000   XZ=              0.0000   YZ=             -0.0000

 1\1\GINC-C455-023\SP\ROCCSD(T)-Full\Gen\Cr1(7)\AANNABE\05-Apr-2018\0\\
 #P ROCCSD(T)=(maxcyc=150, Full)/Gen 5d 7f SCF=(maxcycles=300, NoVarAcc
 , VShift=300) MaxDisk=100GB Pop=Regular Pseudo=Read Guess=Read IOp(5/1
 5=2)\\Cr\\0,7\Cr,0,0.,0.,0.\\Version=ES64L-G16RevA.03\State=7-A1G\HF=-
 85.8394765\MP2=-86.3669326\MP3=-86.3587131\PUHF=-85.8394765\PMP2-0=-86
 .3669326\MP4SDQ=-86.3629588\CCSD=-86.3618368\CCSD(T)=-86.3780048\RMSD=
 9.503e-09\PG=OH [O(Cr1)]\\@

 Normal termination of Gaussian 16 at Thu Apr  5 17:17:29 2018.
