 Gaussian 16, Revision A.03,
 Gaussian 16:  ES64L-G16RevA.03 25-Dec-2016

 ----------------------------------------------------------------------
 #P ROCCSD(T)=(MaxCyc=150, Full)/Gen SCF=(maxcycle=400) Integral(DKHSO,
  NoXCTest) Pop=Regular MaxDisk=500GB Guess=Read IOp(5/15=2)
 ----------------------------------------------------------------------

 ---
 CuO
 ---
 Symbolic Z-matrix:
 Charge =  0 Multiplicity = 2

                         Standard orientation:
 ---------------------------------------------------------------------
 Center     Atomic      Atomic             Coordinates (Angstroms)
 Number     Number       Type             X           Y           Z
 ---------------------------------------------------------------------
      1         29           0        0.000000    0.000000    0.345946
      2          8           0        0.000000    0.000000   -1.254054
 ---------------------------------------------------------------------

 SCF Done:  E(ROHF) =  -1728.02162694     A.U. after   16 cycles
 E2 =    -0.1778717969D+01 EUMP2 =    -0.17298003449121D+04
 CCSD(T)
 CCSD(T)= -0.17297085019D+04

 Unable to determine electronic state:  an orbital has unidentified symmetry.
 Alpha  occ. eigenvalues -- -332.53421 -41.71500 -35.85577 -35.85356 -35.85251
 Alpha  occ. eigenvalues --  -20.54168  -5.21233  -3.42474  -3.41473  -3.41051
 Alpha  occ. eigenvalues --   -1.24669  -0.61028  -0.57575  -0.56606  -0.52943
 Alpha  occ. eigenvalues --   -0.52941  -0.47769  -0.42119  -0.39302
 Alpha virt. eigenvalues --   -0.00825   0.02943   0.03108   0.04038   0.04848
 Alpha virt. eigenvalues --    0.10611   0.11000   0.13727   0.19411   0.19746
 Alpha virt. eigenvalues --    0.19768   0.21182   0.21561   0.22593   0.26024

 Mulliken charges and spin densities:
               1          2
     1  Cu   0.849910   0.031236
     2  O   -0.849910   0.968764
 Sum of Mulliken charges =  -0.00000   1.00000

 Dipole moment (field-independent basis, Debye):
    X=              0.0000    Y=              0.0000    Z=              5.2482  Tot=              5.2482
 Quadrupole moment (field-independent basis, Debye-Ang):
   XX=            -17.6897   YY=            -16.1525   ZZ=            -19.7319
   XY=              0.0000   XZ=              0.0000   YZ=              0.0000

 \\#P ROCCSD(T)=(MaxCyc=150, Full)/Gen SCF=(maxcycle=400) Integral(DKHS
 .8003449\MP4SDQ=-1729.7486141\CCSD=-1729.6580842\CCSD(T)=-1729.7085019
 Normal termination of Gaussian 16 at Sat Mar 24 00:13:16 2018.
