 Gaussian 16, Revision A.03,
 Gaussian 16:  ES64L-G16RevA.03 25-Dec-2016

 ----------------------------------------------------------------------
 #P ROCCSD(T)=(maxcyc=150, Full, SaveAmplitudes, ReadAmplitudes)/Gen 5d
  7f SCF=(maxcycles=300) Integral(NoXCTest) MaxDisk=500GB Pop=Regular P
 seudo=Read Guess=Read IOp(5/15=2)
 ----------------------------------------------------------------------

 ---
 CrO
 ---
 Symbolic Z-matrix:
 Charge =  0 Multiplicity = 5

                         Standard orientation:
 ---------------------------------------------------------------------
 Center     Atomic      Atomic             Coordinates (Angstroms)
 Number     Number       Type             X           Y           Z
 ---------------------------------------------------------------------
      1         24           0        0.000000    0.000000    0.350000
      2          8           0        0.000000    0.000000   -1.050000
 ---------------------------------------------------------------------

 SCF Done:  E(ROHF) =  -101.982812321     A.U. after   27 cycles
 E2 =    -0.8884538911D+00 EUMP2 =    -0.10287126621226D+03
 CCSD(T)
 CCSD(T)= -0.10288777967D+03

 Unable to determine electronic state:  an orbital has unidentified symmetry.
 Alpha  occ. eigenvalues --   -3.76187  -2.47128  -2.42881  -2.42308  -1.22459
 Alpha  occ. eigenvalues --   -0.65340  -0.56921  -0.54031  -0.53086  -0.52086
 Alpha  occ. eigenvalues --   -0.38697  -0.28703
 Alpha virt. eigenvalues --    0.01120   0.01826   0.02182   0.03081   0.04985
 Alpha virt. eigenvalues --    0.05908   0.06795   0.07674   0.07681   0.07980
 Alpha virt. eigenvalues --    0.08513   0.09165   0.12546   0.15996   0.17935

 Mulliken charges and spin densities:
               1          2
     1  Cr   0.966493   3.802136
     2  O   -0.966493   0.197864
 Sum of Mulliken charges =   0.00000   4.00000

 Dipole moment (field-independent basis, Debye):
    X=              0.0000    Y=              0.0000    Z=              3.1978  Tot=              3.1978
 Quadrupole moment (field-independent basis, Debye-Ang):
   XX=            -20.8783   YY=            -19.6271   ZZ=            -24.0062
   XY=              0.0000   XZ=              0.0000   YZ=              0.0000

 \\#P ROCCSD(T)=(maxcyc=150, Full, SaveAmplitudes, ReadAmplitudes)/Gen
 SD=-102.8422049\CCSD(T)=-102.8877797\RMSD=8.759e-09\PG=C*V [C*(O1Cr1)]
 Normal termination of Gaussian 16 at Mon Mar 12 14:31:16 2018.
