 Gaussian 16, Revision A.03,
 Gaussian 16:  ES64L-G16RevA.03 25-Dec-2016

 ----------------------------------------------------------------------
 #P ROCCSD(T)=(maxcyc=150, Full, SaveAmplitudes, ReadAmplitudes)/Gen 5d
  7f SCF=(maxcycles=300, VShift=400) Integral(NoXCTest) MaxDisk=500GB P
 op=Regular Pseudo=Read Guess=Read IOp(5/15=2)
 ----------------------------------------------------------------------

 ---
 CrO
 ---
 Symbolic Z-matrix:
 Charge =  0 Multiplicity = 5

                         Standard orientation:
 ---------------------------------------------------------------------
 Center     Atomic      Atomic             Coordinates (Angstroms)
 Number     Number       Type             X           Y           Z
 ---------------------------------------------------------------------
      1         24           0        0.000000    0.000000    0.475000
      2          8           0        0.000000    0.000000   -1.425000
 ---------------------------------------------------------------------

 SCF Done:  E(ROHF) =  -101.992061471     A.U. after   88 cycles
 E2 =    -0.8668937217D+00 EUMP2 =    -0.10285895519233D+03
 CCSD(T)
 CCSD(T)= -0.10291581560D+03

 Unable to determine electronic state:  an orbital has unidentified symmetry.
 Alpha  occ. eigenvalues --   -3.70835  -2.49240  -2.44071  -2.43423  -1.06858
 Alpha  occ. eigenvalues --   -0.58958  -0.56521  -0.56394  -0.53749  -0.33195
 Alpha  occ. eigenvalues --   -0.32658  -0.31976
 Alpha virt. eigenvalues --   -0.05435   0.00489   0.01165   0.01507   0.03697
 Alpha virt. eigenvalues --    0.04742   0.05930   0.07330   0.07335   0.07619
 Alpha virt. eigenvalues --    0.08314   0.08564   0.12613   0.12792   0.15419

 Mulliken charges and spin densities:
               1          2
     1  Cr   1.129607   3.965885
     2  O   -1.129607   0.034115
 Sum of Mulliken charges =  -0.00000   4.00000

 Dipole moment (field-independent basis, Debye):
    X=              0.0000    Y=              0.0000    Z=             10.2188  Tot=             10.2188
 Quadrupole moment (field-independent basis, Debye-Ang):
   XX=            -19.6821   YY=            -18.9770   ZZ=            -24.7884
   XY=              0.0000   XZ=              0.0000   YZ=              0.0000

 \\#P ROCCSD(T)=(maxcyc=150, Full, SaveAmplitudes, ReadAmplitudes)/Gen
 2.8711704\CCSD=-102.8610615\CCSD(T)=-102.9158156\RMSD=6.802e-09\PG=C*V
 Normal termination of Gaussian 16 at Sun Mar 18 16:42:20 2018.
