 Gaussian 16, Revision A.03,
 Gaussian 16:  ES64L-G16RevA.03 25-Dec-2016

 ----------------------------------------------------------------------
 #P ROCCSD(T)=(MaxCyc=150, Window=(7,0))/Gen SCF=(maxcycle=400) Integra
 l(DKHSO, NoXCTest) Pop=Regular MaxDisk=500GB Guess=Read IOp(5/15=2)
 ----------------------------------------------------------------------

 ---
 NiO
 ---
 Symbolic Z-matrix:
 Charge =  0 Multiplicity = 3

                         Standard orientation:
 ---------------------------------------------------------------------
 Center     Atomic      Atomic             Coordinates (Angstroms)
 Number     Number       Type             X           Y           Z
 ---------------------------------------------------------------------
      1         28           0        0.000000    0.000000    0.266667
      2          8           0        0.000000    0.000000   -0.933333
 ---------------------------------------------------------------------

 SCF Done:  E(ROHF) =  -1593.60570719     A.U. after   22 cycles
 E2 =    -0.1273919379D+01 EUMP2 =    -0.15948796265673D+04
 CCSD(T)
 CCSD(T)= -0.15948102220D+04

 The electronic state is 3-SG.
 Alpha  occ. eigenvalues -- -308.83114 -38.71375 -33.19621 -33.15262 -33.15262
 Alpha  occ. eigenvalues --  -20.62234  -5.15197  -3.55823  -3.42007  -3.42007
 Alpha  occ. eigenvalues --   -1.36271  -0.90282  -0.90282  -0.76861  -0.70278
 Alpha  occ. eigenvalues --   -0.70278  -0.49385  -0.49385  -0.33664
 Alpha virt. eigenvalues --    0.00836   0.03023   0.03023   0.03523   0.05350
 Alpha virt. eigenvalues --    0.10160   0.10160   0.12075   0.12631   0.12631
 Alpha virt. eigenvalues --    0.12844   0.12844   0.13603   0.19182   0.25919

 Mulliken charges and spin densities:
               1          2
     1  Ni   0.741160   1.556589
     2  O   -0.741160   0.443411
 Sum of Mulliken charges =  -0.00000   2.00000

 Dipole moment (field-independent basis, Debye):
    X=              0.0000    Y=              0.0000    Z=              2.7336  Tot=              2.7336
 Quadrupole moment (field-independent basis, Debye-Ang):
   XX=            -19.4895   YY=            -19.4895   ZZ=            -19.1832
   XY=              0.0000   XZ=              0.0000   YZ=              0.0000

 1\1\GINC-C497-044\SP\ROCCSD(T)-RW\Gen\Ni1O1(3)\GWANG18\17-Mar-2018\0\\
 #P ROCCSD(T)=(MaxCyc=150, Window=(7,0))/Gen SCF=(maxcycle=400) Integra
 l(DKHSO, NoXCTest) Pop=Regular MaxDisk=500GB Guess=Read IOp(5/15=2)\\N
 iO\\0,3\Ni,0,0.,0.,0.\O,0,0.,0.,1.2\\Version=ES64L-G16RevA.03\State=3-
 SG\HF=-1593.6057072\MP2=-1594.8796266\MP3=-1594.6605777\PUHF=-1593.605
 7072\PMP2-0=-1594.8796266\MP4SDQ=-1594.8234306\CCSD=-1594.758227\CCSD(
 T)=-1594.810222\RMSD=3.859e-09\PG=C*V [C*(O1Ni1)]\\@

 Normal termination of Gaussian 16 at Sat Mar 17 03:42:17 2018.
