 Gaussian 16, Revision A.03,
 Gaussian 16:  ES64L-G16RevA.03 25-Dec-2016

 ----------------------------------------------------------------------
 #P ROCCSD(T)=(MaxCyc=150, Window=(7,0))/Gen SCF=(maxcycle=400) Integra
 l(DKHSO, NoXCTest) Pop=Regular MaxDisk=500GB Guess=Read IOp(5/15=2)
 ----------------------------------------------------------------------

 ---
 NiO
 ---
 Symbolic Z-matrix:
 Charge =  0 Multiplicity = 3

                         Standard orientation:
 ---------------------------------------------------------------------
 Center     Atomic      Atomic             Coordinates (Angstroms)
 Number     Number       Type             X           Y           Z
 ---------------------------------------------------------------------
      1         28           0        0.000000    0.000000    0.266667
      2          8           0        0.000000    0.000000   -0.933333
 ---------------------------------------------------------------------

 SCF Done:  E(ROHF) =  -1593.61297162     A.U. after   23 cycles
 E2 =    -0.1330347477D+01 EUMP2 =    -0.15949433190968D+04
 CCSD(T)
 CCSD(T)= -0.15948719668D+04

 The electronic state is 3-SG.
 Alpha  occ. eigenvalues -- -308.83111 -38.71353 -33.19590 -33.15240 -33.15240
 Alpha  occ. eigenvalues --  -20.62078  -5.15178  -3.55790  -3.41997  -3.41997
 Alpha  occ. eigenvalues --   -1.36200  -0.90297  -0.90297  -0.76855  -0.70290
 Alpha  occ. eigenvalues --   -0.70290  -0.49406  -0.49406  -0.33648
 Alpha virt. eigenvalues --    0.00784   0.02698   0.02698   0.03195   0.05010
 Alpha virt. eigenvalues --    0.07820   0.07820   0.08138   0.08371   0.08371
 Alpha virt. eigenvalues --    0.09642   0.09642   0.11649   0.17649   0.22127

 Mulliken charges and spin densities:
               1          2
     1  Ni   0.504938   1.571179
     2  O   -0.504938   0.428821
 Sum of Mulliken charges =  -0.00000   2.00000

 Dipole moment (field-independent basis, Debye):
    X=              0.0000    Y=              0.0000    Z=              2.7225  Tot=              2.7225
 Quadrupole moment (field-independent basis, Debye-Ang):
   XX=            -19.4869   YY=            -19.4869   ZZ=            -19.1697
   XY=              0.0000   XZ=              0.0000   YZ=              0.0000

 1\1\GINC-C476-134\SP\ROCCSD(T)-RW\Gen\Ni1O1(3)\GWANG18\18-Mar-2018\0\\
 #P ROCCSD(T)=(MaxCyc=150, Window=(7,0))/Gen SCF=(maxcycle=400) Integra
 l(DKHSO, NoXCTest) Pop=Regular MaxDisk=500GB Guess=Read IOp(5/15=2)\\N
 iO\\0,3\Ni,0,0.,0.,0.\O,0,0.,0.,1.2\\Version=ES64L-G16RevA.03\State=3-
 SG\HF=-1593.6129716\MP2=-1594.9433191\MP3=-1594.721347\PUHF=-1593.6129
 716\PMP2-0=-1594.9433191\MP4SDQ=-1594.8817746\CCSD=-1594.8174995\CCSD(
 T)=-1594.8719668\RMSD=2.472e-09\PG=C*V [C*(O1Ni1)]\\@

 Normal termination of Gaussian 16 at Sun Mar 18 03:57:23 2018.
