 Gaussian 16, Revision A.03,
 Gaussian 16:  ES64L-G16RevA.03 25-Dec-2016

 ----------------------------------------------------------------------
 #P ROCCSD(T)=(MaxCyc=150, Full)/Gen SCF=(maxcycle=400, vshift=200) Pse
 udo=Read Integral(NoXCTest) Pop=Regular MaxDisk=500GB Guess=Read IOp(5
 /15=2)
 ----------------------------------------------------------------------

 ---
 CoH
 ---
 Symbolic Z-matrix:
 Charge =  0 Multiplicity = 3

                         Standard orientation:
 ---------------------------------------------------------------------
 Center     Atomic      Atomic             Coordinates (Angstroms)
 Number     Number       Type             X           Y           Z
 ---------------------------------------------------------------------
      1         27           0        0.000000    0.000000    0.060714
      2          1           0        0.000000    0.000000   -1.639286
 ---------------------------------------------------------------------

 SCF Done:  E(ROHF) =  -145.417474974     A.U. after   49 cycles
 E2 =    -0.8544270859D+00 EUMP2 =    -0.14627190206021D+03
 CCSD(T)
 CCSD(T)= -0.14625240899D+03

 Unable to determine electronic state:  partially filled degenerate orbitals.
 Alpha  occ. eigenvalues --   -4.58765  -2.94718  -2.94718  -2.94645  -0.49556
 Alpha  occ. eigenvalues --   -0.49077  -0.44807  -0.44417  -0.44417  -0.32520
 Alpha virt. eigenvalues --   -0.00333   0.02632   0.02632   0.03465   0.04604
 Alpha virt. eigenvalues --    0.09403   0.09403   0.10122   0.11228   0.11271
 Alpha virt. eigenvalues --    0.11510   0.11510   0.11654   0.18608   0.24442

 Mulliken charges and spin densities:
               1          2
     1  Co   0.375885   1.988085
     2  H   -0.375885   0.011915
 Sum of Mulliken charges =  -0.00000   2.00000

 Dipole moment (field-independent basis, Debye):
    X=              0.0000    Y=              0.0000    Z=              4.6946  Tot=              4.6946
 Quadrupole moment (field-independent basis, Debye-Ang):
   XX=            -13.9331   YY=            -13.9331   ZZ=            -18.7841
   XY=              0.0000   XZ=              0.0000   YZ=              0.0000

 \\#P ROCCSD(T)=(MaxCyc=150, Full)/Gen SCF=(maxcycle=400, vshift=200) P
 MP2-0=-146.2719021\MP4SDQ=-146.2474586\CCSD=-146.2226609\CCSD(T)=-146.
 Normal termination of Gaussian 16 at Sun Apr 22 02:18:48 2018.
