 Gaussian 16, Revision A.03,
 Gaussian 16:  ES64L-G16RevA.03 25-Dec-2016

 ----------------------------------------------------------------------
 #P ROCCSD(T)=(MaxCyc=150, Full)/Gen SCF=(maxcycle=400, vshift=200) Pse
 udo=Read Integral(NoXCTest) Pop=Regular MaxDisk=500GB Guess=Read IOp(5
 /15=2)
 ----------------------------------------------------------------------

 ---
 CoH
 ---
 Symbolic Z-matrix:
 Charge =  0 Multiplicity = 3

                         Standard orientation:
 ---------------------------------------------------------------------
 Center     Atomic      Atomic             Coordinates (Angstroms)
 Number     Number       Type             X           Y           Z
 ---------------------------------------------------------------------
      1         27           0        0.000000    0.000000    0.060714
      2          1           0        0.000000    0.000000   -1.639286
 ---------------------------------------------------------------------

 SCF Done:  E(ROHF) =  -145.419018874     A.U. after   29 cycles
 E2 =    -0.9154961280D+00 EUMP2 =    -0.14633451500246D+03
 CCSD(T)
 CCSD(T)= -0.14631115706D+03

 Unable to determine electronic state:  partially filled degenerate orbitals.
 Alpha  occ. eigenvalues --   -4.58769  -2.94713  -2.94712  -2.94640  -0.49557
 Alpha  occ. eigenvalues --   -0.49079  -0.44818  -0.44432  -0.44432  -0.32522
 Alpha virt. eigenvalues --   -0.00386   0.02300   0.02300   0.02810   0.03738
 Alpha virt. eigenvalues --    0.06410   0.06592   0.06602   0.06882   0.06882
 Alpha virt. eigenvalues --    0.08201   0.08201   0.08876   0.14179   0.17551

 Mulliken charges and spin densities:
               1          2
     1  Co   0.325457   1.993789
     2  H   -0.325457   0.006211
 Sum of Mulliken charges =  -0.00000   2.00000

 Dipole moment (field-independent basis, Debye):
    X=              0.0000    Y=              0.0000    Z=              4.6897  Tot=              4.6897
 Quadrupole moment (field-independent basis, Debye-Ang):
   XX=            -13.9202   YY=            -13.9203   ZZ=            -18.7921
   XY=              0.0000   XZ=              0.0000   YZ=              0.0000

 \\#P ROCCSD(T)=(MaxCyc=150, Full)/Gen SCF=(maxcycle=400, vshift=200) P
 PMP2-0=-146.334515\MP4SDQ=-146.3033178\CCSD=-146.2793047\CCSD(T)=-146.
 Normal termination of Gaussian 16 at Sat Apr 28 23:50:48 2018.
