 Gaussian 16, Revision A.03,
 Gaussian 16:  ES64L-G16RevA.03 25-Dec-2016

 ----------------------------------------------------------------------
 #P ROCCSD(T)=(MaxCyc=150, Full)/Gen SCF=(maxcycle=400, vshift=200) Pse
 udo=Read Integral(NoXCTest) Pop=Regular MaxDisk=500GB Guess=Read IOp(5
 /15=2)
 ----------------------------------------------------------------------

 ---
 CoH
 ---
 Symbolic Z-matrix:
 Charge =  0 Multiplicity = 3

                         Standard orientation:
 ---------------------------------------------------------------------
 Center     Atomic      Atomic             Coordinates (Angstroms)
 Number     Number       Type             X           Y           Z
 ---------------------------------------------------------------------
      1         27           0        0.000000    0.000000    0.060714
      2          1           0        0.000000    0.000000   -1.639286
 ---------------------------------------------------------------------

 SCF Done:  E(ROHF) =  -145.418822448     A.U. after   35 cycles
 E2 =    -0.8955503137D+00 EUMP2 =    -0.14631437276145D+03
 CCSD(T)
 CCSD(T)= -0.14629325397D+03

 Unable to determine electronic state:  partially filled degenerate orbitals.
 Alpha  occ. eigenvalues --   -4.58769  -2.94713  -2.94713  -2.94641  -0.49560
 Alpha  occ. eigenvalues --   -0.49081  -0.44814  -0.44427  -0.44426  -0.32522
 Alpha virt. eigenvalues --   -0.00349   0.02378   0.02378   0.03134   0.04322
 Alpha virt. eigenvalues --    0.06985   0.07291   0.07305   0.07557   0.07557
 Alpha virt. eigenvalues --    0.08597   0.08597   0.10194   0.17665   0.19688

 Mulliken charges and spin densities:
               1          2
     1  Co   0.353286   1.995853
     2  H   -0.353286   0.004147
 Sum of Mulliken charges =  -0.00000   2.00000

 Dipole moment (field-independent basis, Debye):
    X=              0.0000    Y=              0.0000    Z=              4.6899  Tot=              4.6899
 Quadrupole moment (field-independent basis, Debye-Ang):
   XX=            -13.9209   YY=            -13.9209   ZZ=            -18.7915
   XY=              0.0000   XZ=              0.0000   YZ=              0.0000

 \\#P ROCCSD(T)=(MaxCyc=150, Full)/Gen SCF=(maxcycle=400, vshift=200) P
 \PMP2-0=-146.3143728\MP4SDQ=-146.2863072\CCSD=-146.261979\CCSD(T)=-146
 Normal termination of Gaussian 16 at Sun Apr 22 03:03:02 2018.
