 Gaussian 16, Revision A.03,
 Gaussian 16:  ES64L-G16RevA.03 25-Dec-2016

 ----------------------------------------------------------------------
 #P ROCCSD(T)=(maxcyc=150, Full, SaveAmplitudes, ReadAmplitudes)/Gen 5d
  7f SCF=(maxcycles=300) Integral(NoXCTest) MaxDisk=500GB Pop=Regular P
 seudo=Read Guess=Read IOp(5/15=2)
 ----------------------------------------------------------------------

 ---
 ScO
 ---
 Symbolic Z-matrix:
 Charge =  0 Multiplicity = 2

                         Standard orientation:
 ---------------------------------------------------------------------
 Center     Atomic      Atomic             Coordinates (Angstroms)
 Number     Number       Type             X           Y           Z
 ---------------------------------------------------------------------
      1         21           0        0.000000    0.000000    0.331034
      2          8           0        0.000000    0.000000   -0.868966
 ---------------------------------------------------------------------

 SCF Done:  E(ROHF) =  -61.6407296620     A.U. after   18 cycles
 E2 =    -0.6531587747D+00 EUMP2 =    -0.62293888436652D+02
 CCSD(T)
 CCSD(T)= -0.62325002899D+02

 The electronic state is 2-SG.
 Alpha  occ. eigenvalues --   -2.61623  -1.81765  -1.51859  -1.51859  -1.04473
 Alpha  occ. eigenvalues --   -0.63747  -0.63747  -0.47732  -0.17896
 Alpha virt. eigenvalues --    0.01032   0.01032   0.01786   0.02772   0.03767
 Alpha virt. eigenvalues --    0.03767   0.03801   0.03801   0.03863   0.04918
 Alpha virt. eigenvalues --    0.04918   0.07197   0.11117   0.11117   0.11180

 Mulliken charges and spin densities:
               1          2
     1  Sc   1.073909   1.029704
     2  O   -1.073909  -0.029704
 Sum of Mulliken charges =  -0.00000   1.00000

 Dipole moment (field-independent basis, Debye):
    X=              0.0000    Y=              0.0000    Z=             -1.2030  Tot=              1.2030
 Quadrupole moment (field-independent basis, Debye-Ang):
   XX=            -23.4855   YY=            -23.4855   ZZ=            -28.9856
   XY=              0.0000   XZ=              0.0000   YZ=              0.0000

 \\#P ROCCSD(T)=(maxcyc=150, Full, SaveAmplitudes, ReadAmplitudes)/Gen
 99\CCSD=-62.2976338\CCSD(T)=-62.3250029\RMSD=3.845e-09\PG=C*V [C*(O1Sc
 Normal termination of Gaussian 16 at Tue Mar 13 12:16:43 2018.
