 Gaussian 16, Revision A.03,
 Gaussian 16:  ES64L-G16RevA.03 25-Dec-2016

 ----------------------------------------------------------------------
 #P ROCCSD(T)=(maxcyc=150, Full, SaveAmplitudes, ReadAmplitudes)/Gen 5d
  7f SCF=(maxcycles=300) Integral(NoXCTest) MaxDisk=500GB Pop=Regular P
 seudo=Read Guess=Read
 ----------------------------------------------------------------------

 ---
 CrO
 ---
 Symbolic Z-matrix:
 Charge =  0 Multiplicity = 5

                         Standard orientation:
 ---------------------------------------------------------------------
 Center     Atomic      Atomic             Coordinates (Angstroms)
 Number     Number       Type             X           Y           Z
 ---------------------------------------------------------------------
      1         24           0        0.000000    0.000000    0.350000
      2          8           0        0.000000    0.000000   -1.050000
 ---------------------------------------------------------------------

 SCF Done:  E(ROHF) =  -101.802961160     A.U. after   24 cycles
 E2 =    -0.9170424344D+00 EUMP2 =    -0.10272000359430D+03
 CCSD(T)
 CCSD(T)= -0.10273476178D+03

 Unable to determine electronic state:  an orbital has unidentified symmetry.
 Alpha  occ. eigenvalues --   -3.76437  -2.50657  -2.46448  -2.45834  -1.22895
 Alpha  occ. eigenvalues --   -0.65464  -0.56963  -0.53837  -0.53501  -0.52114
 Alpha  occ. eigenvalues --   -0.38631  -0.28425
 Alpha virt. eigenvalues --    0.01029   0.01607   0.02025   0.02732   0.04499
 Alpha virt. eigenvalues --    0.04908   0.05376   0.05377   0.05515   0.05724
 Alpha virt. eigenvalues --    0.06921   0.06967   0.10494   0.13650   0.14129

 Mulliken charges and spin densities:
               1          2
     1  Cr   0.953786   3.888261
     2  O   -0.953786   0.111739
 Sum of Mulliken charges =  -0.00000   4.00000

 Dipole moment (field-independent basis, Debye):
    X=              0.0000    Y=              0.0000    Z=              3.0804  Tot=              3.0804
 Quadrupole moment (field-independent basis, Debye-Ang):
   XX=            -21.0578   YY=            -19.7898   ZZ=            -24.2324
   XY=              0.0000   XZ=              0.0000   YZ=              0.0000

 \\#P ROCCSD(T)=(maxcyc=150, Full, SaveAmplitudes, ReadAmplitudes)/Gen
 MP2-0=-102.7200036\CCSD=-102.6881722\CCSD(T)=-102.7347618\RMSD=2.070e-
 Normal termination of Gaussian 16 at Mon Mar 12 16:08:29 2018.
