 Gaussian 16, Revision A.03,
 Gaussian 16:  ES64L-G16RevA.03 25-Dec-2016

 ----------------------------------------------------------------------
 #P ROCCSD(T)=(maxcyc=150, Full, SaveAmplitudes, ReadAmplitudes)/Gen 5d
  7f SCF=(maxcycles=300, VShift=400) Integral(NoXCTest) MaxDisk=500GB P
 op=Full Pseudo=Read Guess=Read IOp(5/15=2)
 ----------------------------------------------------------------------

 ---
 CrO
 ---
 Symbolic Z-matrix:
 Charge =  0 Multiplicity = 5

                         Standard orientation:
 ---------------------------------------------------------------------
 Center     Atomic      Atomic             Coordinates (Angstroms)
 Number     Number       Type             X           Y           Z
 ---------------------------------------------------------------------
      1         24           0        0.000000    0.000000    0.300000
      2          8           0        0.000000    0.000000   -0.900000
 ---------------------------------------------------------------------

 SCF Done:  E(ROHF) =  -101.872811740     A.U. after   51 cycles
 E2 =    -0.8871392875D+00 EUMP2 =    -0.10275995102704D+03
 CCSD(T)
 CCSD(T)= -0.10276728238D+03

 Unable to determine electronic state:  an orbital has unidentified symmetry.
 Alpha  occ. eigenvalues --   -3.75433  -2.48222  -2.43603  -2.39580  -1.26028
 Alpha  occ. eigenvalues --   -0.75004  -0.68250  -0.65023  -0.50813  -0.50702
 Alpha  occ. eigenvalues --   -0.31195  -0.26000
 Alpha virt. eigenvalues --    0.01517   0.02470   0.02728   0.02811   0.05532
 Alpha virt. eigenvalues --    0.07053   0.07636   0.07762   0.07790   0.07792
 Alpha virt. eigenvalues --    0.09415   0.10053   0.12250   0.18028   0.20891

 Mulliken charges and spin densities:
               1          2
     1  Cr   0.834317   3.724025
     2  O   -0.834317   0.275975
 Sum of Mulliken charges =  -0.00000   4.00000

 Dipole moment (field-independent basis, Debye):
    X=              0.0000    Y=              0.0000    Z=              0.3666  Tot=              0.3666
 Quadrupole moment (field-independent basis, Debye-Ang):
   XX=            -22.3399   YY=            -19.8215   ZZ=            -22.7412
   XY=              0.0000   XZ=              0.0000   YZ=              0.0000

 \\#P ROCCSD(T)=(maxcyc=150, Full, SaveAmplitudes, ReadAmplitudes)/Gen
 5191\CCSD=-102.7279216\CCSD(T)=-102.7672824\RMSD=9.921e-09\PG=C*V [C*(
 Normal termination of Gaussian 16 at Wed Apr  4 07:54:34 2018.
