 Gaussian 16, Revision A.03,
 Gaussian 16:  ES64L-G16RevA.03 25-Dec-2016

 ----------------------------------------------------------------------
 #P ROCCSD(T)=(maxcyc=150, Full)/Gen 5d 7f SCF=(maxcycles=300) Integral
 (NoXCTest, DKHSO) MaxDisk=500GB Pop=Regular IOp(5/15=2) Guess=Read
 ----------------------------------------------------------------------

 ---
 ScH
 ---
 Symbolic Z-matrix:
 Charge =  0 Multiplicity = 1

                         Standard orientation:
 ---------------------------------------------------------------------
 Center     Atomic      Atomic             Coordinates (Angstroms)
 Number     Number       Type             X           Y           Z
 ---------------------------------------------------------------------
      1         21           0        0.000000    0.000000    0.068182
      2          1           0        0.000000    0.000000   -1.431818
 ---------------------------------------------------------------------

 SCF Done:  E(ROHF) =  -763.813713875     A.U. after   12 cycles
 E2 =    -0.7979275539D+00 EUMP2 =    -0.76461164142851D+03
 CCSD(T)
 CCSD(T)= -0.76464428040D+03

 The electronic state is 1-SG.
 Alpha  occ. eigenvalues -- -166.88156 -19.33353 -15.75699 -15.75699 -15.74994
 Alpha  occ. eigenvalues --   -2.65253  -1.63869  -1.62911  -1.62911  -0.44237
 Alpha  occ. eigenvalues --   -0.22277
 Alpha virt. eigenvalues --    0.01222   0.01222   0.01502   0.01679   0.02619
 Alpha virt. eigenvalues --    0.02619   0.02630   0.02630   0.02654   0.04149
 Alpha virt. eigenvalues --    0.04223   0.04223   0.06980   0.07291   0.07291

 Mulliken charges and spin densities:
               1          2
     1  Sc   0.378604   0.000000
     2  H   -0.378604   0.000000
 Sum of Mulliken charges =  -0.00000   0.00000

 Dipole moment (field-independent basis, Debye):
    X=              0.0000    Y=             -0.0000    Z=              0.7119  Tot=              0.7119
 Quadrupole moment (field-independent basis, Debye-Ang):
   XX=            -23.7658   YY=            -23.7658   ZZ=            -25.1294
   XY=             -0.0000   XZ=              0.0000   YZ=              0.0000

 P ROCCSD(T)=(maxcyc=150, Full)/Gen 5d 7f SCF=(maxcycles=300) Integral(
 MP2-0=-764.6116414\MP4SDQ=-764.6245913\CCSD=-764.6245064\CCSD(T)=-764.
 Normal termination of Gaussian 16 at Tue Feb 13 20:37:24 2018.
