 Gaussian 16, Revision A.03,
 Gaussian 16:  ES64L-G16RevA.03 25-Dec-2016

 ----------------------------------------------------------------------
 #P ROCCSD(T)=(MaxCyc=150, Full)/Gen SCF=(maxcycle=400, vshift=200) Pse
 udo=Read Integral(NoXCTest) Pop=Regular MaxDisk=500GB Guess=Read IOp(5
 /15=2)
 ----------------------------------------------------------------------

 ---
 CuO
 ---
 Symbolic Z-matrix:
 Charge =  0 Multiplicity = 2

                         Standard orientation:
 ---------------------------------------------------------------------
 Center     Atomic      Atomic             Coordinates (Angstroms)
 Number     Number       Type             X           Y           Z
 ---------------------------------------------------------------------
      1         29           0        0.000000    0.000000    0.281081
      2          8           0        0.000000    0.000000   -1.018919
 ---------------------------------------------------------------------

 SCF Done:  E(ROHF) =  -210.820296715     A.U. after   38 cycles
 E2 =    -0.1350750997D+01 EUMP2 =    -0.21217104771185D+03
 CCSD(T)
 CCSD(T)= -0.21208819557D+03

 Unable to determine electronic state:  an orbital has unidentified symmetry.
 Alpha  occ. eigenvalues --   -5.38555  -3.58330  -3.54073  -3.52261  -1.35445
 Alpha  occ. eigenvalues --   -0.77141  -0.73735  -0.67707  -0.61941  -0.61903
 Alpha  occ. eigenvalues --   -0.49755  -0.44667  -0.35912
 Alpha virt. eigenvalues --    0.00330   0.03107   0.03273   0.03838   0.05584
 Alpha virt. eigenvalues --    0.10866   0.11387   0.13521   0.19111   0.20040
 Alpha virt. eigenvalues --    0.20056   0.20993   0.21777   0.21910   0.25920

 Mulliken charges and spin densities:
               1          2
     1  Cu   0.851369   0.163604
     2  O   -0.851369   0.836396
 Sum of Mulliken charges =  -0.00000   1.00000

 Dipole moment (field-independent basis, Debye):
    X=              0.0000    Y=              0.0000    Z=              3.7654  Tot=              3.7654
 Quadrupole moment (field-independent basis, Debye-Ang):
   XX=            -17.1807   YY=            -18.5894   ZZ=            -18.2074
   XY=              0.0000   XZ=              0.0000   YZ=              0.0000

 \\#P ROCCSD(T)=(MaxCyc=150, Full)/Gen SCF=(maxcycle=400, vshift=200) P
 \PMP2-0=-212.1710477\MP4SDQ=-212.1191629\CCSD=-212.0355867\CCSD(T)=-21
 Normal termination of Gaussian 16 at Sat May  5 21:30:53 2018.
