 Gaussian 16, Revision A.03,
 Gaussian 16:  ES64L-G16RevA.03 25-Dec-2016

 ----------------------------------------------------------------------
 #P ROCCSD(T)=(MaxCyc=150, Full)/Gen SCF=(maxcycle=400, vshift=200) Pse
 udo=Read Integral(NoXCTest) Pop=Regular MaxDisk=500GB Guess=Read IOp(5
 /15=2)
 ----------------------------------------------------------------------

 ---
 CuO
 ---
 Symbolic Z-matrix:
 Charge =  0 Multiplicity = 2

                         Standard orientation:
 ---------------------------------------------------------------------
 Center     Atomic      Atomic             Coordinates (Angstroms)
 Number     Number       Type             X           Y           Z
 ---------------------------------------------------------------------
      1         29           0        0.000000    0.000000    0.281081
      2          8           0        0.000000    0.000000   -1.018919
 ---------------------------------------------------------------------

 SCF Done:  E(ROHF) =  -210.824762625     A.U. after   22 cycles
 E2 =    -0.1415025509D+01 EUMP2 =    -0.21223978813312D+03
 CCSD(T)
 CCSD(T)= -0.21215437025D+03

 Unable to determine electronic state:  an orbital has unidentified symmetry.
 Alpha  occ. eigenvalues --   -5.38536  -3.58291  -3.54044  -3.52239  -1.35391
 Alpha  occ. eigenvalues --   -0.77147  -0.73742  -0.67690  -0.61938  -0.61901
 Alpha  occ. eigenvalues --   -0.49757  -0.44672  -0.35892
 Alpha virt. eigenvalues --    0.00297   0.02749   0.02882   0.03482   0.05212
 Alpha virt. eigenvalues --    0.09403   0.09821   0.12114   0.13809   0.13818
 Alpha virt. eigenvalues --    0.13914   0.14220   0.14255   0.19174   0.21947

 Mulliken charges and spin densities:
               1          2
     1  Cu   0.621647   0.176911
     2  O   -0.621647   0.823089
 Sum of Mulliken charges =  -0.00000   1.00000

 Dipole moment (field-independent basis, Debye):
    X=              0.0000    Y=              0.0000    Z=              3.7526  Tot=              3.7526
 Quadrupole moment (field-independent basis, Debye-Ang):
   XX=            -17.1726   YY=            -18.5666   ZZ=            -18.2134
   XY=              0.0000   XZ=              0.0000   YZ=              0.0000

 \\#P ROCCSD(T)=(MaxCyc=150, Full)/Gen SCF=(maxcycle=400, vshift=200) P
 \PMP2-0=-212.2397881\MP4SDQ=-212.1814743\CCSD=-212.0990489\CCSD(T)=-21
 Normal termination of Gaussian 16 at Sun May  6 00:03:36 2018.
