 Gaussian 16, Revision A.03,
 Gaussian 16:  ES64L-G16RevA.03 25-Dec-2016

 ----------------------------------------------------------------------
 #P ROCCSD(T)=(maxcyc=150, Full)/Gen 5d 7f SCF=(maxcycles=300) Integral
 (NoXCTest, DKHSO) MaxDisk=500GB Pop=Regular IOp(5/15=2) Guess=Read
 ----------------------------------------------------------------------

 ---
 MnH
 ---
 Symbolic Z-matrix:
 Charge =  0 Multiplicity = 7

                         Standard orientation:
 ---------------------------------------------------------------------
 Center     Atomic      Atomic             Coordinates (Angstroms)
 Number     Number       Type             X           Y           Z
 ---------------------------------------------------------------------
      1         25           0        0.000000    0.000000    0.046154
      2          1           0        0.000000    0.000000   -1.153846
 ---------------------------------------------------------------------

 SCF Done:  E(ROHF) =  -1157.82640540     A.U. after   28 cycles
 E2 =    -0.9863480826D+00 EUMP2 =    -0.11588127534865D+04
 CCSD(T)
 CCSD(T)= -0.11588192694D+04

 The electronic state is 7-SG.
 Alpha  occ. eigenvalues -- -242.49009 -29.59691 -24.95082 -24.95082 -24.94943
 Alpha  occ. eigenvalues --   -4.08842  -2.74739  -2.73678  -2.73678  -0.67915
 Alpha  occ. eigenvalues --   -0.63376  -0.63376  -0.63304  -0.63304  -0.41047
 Alpha  occ. eigenvalues --   -0.23598
 Alpha virt. eigenvalues --    0.01363   0.01363   0.02085   0.03330   0.05832
 Alpha virt. eigenvalues --    0.05832   0.08513   0.08513   0.08651   0.08922
 Alpha virt. eigenvalues --    0.08922   0.08922   0.14195   0.22031   0.22675

 Mulliken charges and spin densities:
               1          2
     1  Mn   0.502691   5.935784
     2  H   -0.502691   0.064216
 Sum of Mulliken charges =  -0.00000   6.00000

 Dipole moment (field-independent basis, Debye):
    X=              0.0000    Y=              0.0000    Z=             -0.3688  Tot=              0.3688
 Quadrupole moment (field-independent basis, Debye-Ang):
   XX=            -16.2580   YY=            -16.2580   ZZ=            -25.6593
   XY=              0.0000   XZ=              0.0000   YZ=              0.0000

 \\#P ROCCSD(T)=(maxcyc=150, Full)/Gen 5d 7f SCF=(maxcycles=300) Integr
 Normal termination of Gaussian 16 at Wed Feb 14 22:38:34 2018.
