 Gaussian 16, Revision A.03,
 Gaussian 16:  ES64L-G16RevA.03 25-Dec-2016

 ----------------------------------------------------------------------
 #P ROCCSD(T)=(maxcyc=150, Full, SaveAmplitudes, ReadAmplitudes)/Gen 5d
  7f SCF=(maxcycles=300) Integral(NoXCTest) MaxDisk=500GB Pop=Regular P
 seudo=Read Guess=Read
 ----------------------------------------------------------------------

 ---
 ScO
 ---
 Symbolic Z-matrix:
 Charge =  0 Multiplicity = 2

                         Standard orientation:
 ---------------------------------------------------------------------
 Center     Atomic      Atomic             Coordinates (Angstroms)
 Number     Number       Type             X           Y           Z
 ---------------------------------------------------------------------
      1         21           0        0.000000    0.000000    0.468966
      2          8           0        0.000000    0.000000   -1.231034
 ---------------------------------------------------------------------

 SCF Done:  E(ROHF) =  -62.0768745383     A.U. after   15 cycles
 E2 =    -0.7198496901D+00 EUMP2 =    -0.62796724228394D+02
 CCSD(T)
 CCSD(T)= -0.62823260392D+02

 The electronic state is 2-SG.
 Alpha  occ. eigenvalues --   -2.71808  -1.65736  -1.62932  -1.62932  -1.10852
 Alpha  occ. eigenvalues --   -0.42595  -0.40989  -0.40989  -0.25302
 Alpha virt. eigenvalues --   -0.00073  -0.00073   0.01314   0.02030   0.02699
 Alpha virt. eigenvalues --    0.02699   0.02969   0.02969   0.03223   0.03223
 Alpha virt. eigenvalues --    0.03456   0.04602   0.06777   0.06777   0.09310

 Mulliken charges and spin densities:
               1          2
     1  Sc   1.292068   0.989909
     2  O   -1.292068   0.010091
 Sum of Mulliken charges =  -0.00000   1.00000

 Dipole moment (field-independent basis, Debye):
    X=              0.0000    Y=              0.0000    Z=              4.8688  Tot=              4.8688
 Quadrupole moment (field-independent basis, Debye-Ang):
   XX=            -21.8097   YY=            -21.8097   ZZ=            -32.6573
   XY=              0.0000   XZ=              0.0000   YZ=              0.0000

 \\#P ROCCSD(T)=(maxcyc=150, Full, SaveAmplitudes, ReadAmplitudes)/Gen
 768745\PMP2-0=-62.7967242\CCSD=-62.7808607\CCSD(T)=-62.8232604\RMSD=2.
 Normal termination of Gaussian 16 at Wed Feb 28 20:13:18 2018.
