 Gaussian 16, Revision A.03,
 Gaussian 16:  ES64L-G16RevA.03 25-Dec-2016

 ----------------------------------------------------------------------
 #P ROCCSD(T)=(MaxCyc=150, FrzINGC)/Gen SCF=(maxcycle=400, vshift=200)
 Integral(DKHSO, NoXCTest) Pop=Regular MaxDisk=500GB Guess=Read IOp(5/1
 5=2)
 ----------------------------------------------------------------------

 ---
 ZnH
 ---
 Symbolic Z-matrix:
 Charge =  0 Multiplicity = 2

                         Standard orientation:
 ---------------------------------------------------------------------
 Center     Atomic      Atomic             Coordinates (Angstroms)
 Number     Number       Type             X           Y           Z
 ---------------------------------------------------------------------
      1         30           0        0.000000    0.000000    0.038710
      2          1           0        0.000000    0.000000   -1.161290
 ---------------------------------------------------------------------

 SCF Done:  E(ROHF) =  -1794.74541777     A.U. after   24 cycles
 E2 =    -0.1129430295D+01 EUMP2 =    -0.17958748480625D+04
 CCSD(T)
 CCSD(T)= -0.17957998942D+04

 The electronic state is 2-SG.
 Alpha  occ. eigenvalues -- -357.60062 -45.37343 -39.17564 -39.17522 -39.17522
 Alpha  occ. eigenvalues --   -5.84442  -3.92902  -3.91940  -3.91940  -0.83411
 Alpha  occ. eigenvalues --   -0.80715  -0.80715  -0.80628  -0.80628  -0.49016
 Alpha  occ. eigenvalues --   -0.26544
 Alpha virt. eigenvalues --    0.01977   0.01977   0.02105   0.03398   0.06418
 Alpha virt. eigenvalues --    0.06418   0.06962   0.11883   0.14004   0.15302
 Alpha virt. eigenvalues --    0.15302   0.15541   0.15541   0.19189   0.20480

 Mulliken charges and spin densities:
               1          2
     1  Zn   0.329194   0.948814
     2  H   -0.329194   0.051186
 Sum of Mulliken charges =  -0.00000   1.00000

 Dipole moment (field-independent basis, Debye):
    X=              0.0000    Y=             -0.0000    Z=             -0.2695  Tot=              0.2695
 Quadrupole moment (field-independent basis, Debye-Ang):
   XX=            -14.6083   YY=            -14.6083   ZZ=            -20.7032
   XY=              0.0000   XZ=              0.0000   YZ=              0.0000

 \#P ROCCSD(T)=(MaxCyc=150, FrzINGC)/Gen SCF=(maxcycle=400, vshift=200)
 64\CCSD(T)=-1795.7998942\RMSD=2.326e-09\PG=C*V [C*(H1Zn1)]\\@
 Normal termination of Gaussian 16 at Sun Apr 29 16:02:24 2018.
