 Gaussian 16, Revision A.03,
 Gaussian 16:  ES64L-G16RevA.03 25-Dec-2016

 ----------------------------------------------------------------------
 #P ROCCSD(T)=(maxcyc=150, Full, SaveAmplitudes, ReadAmplitudes)/Gen 5d
  7f SCF=(maxcycles=300) Integral(NoXCTest) MaxDisk=500GB Pop=Regular P
 seudo=Read Guess=Read IOp(5/15=2)
 ----------------------------------------------------------------------

 ---
 CrH
 ---
 Symbolic Z-matrix:
 Charge =  0 Multiplicity = 6

                         Standard orientation:
 ---------------------------------------------------------------------
 Center     Atomic      Atomic             Coordinates (Angstroms)
 Number     Number       Type             X           Y           Z
 ---------------------------------------------------------------------
      1         24           0        0.000000    0.000000    0.040000
      2          1           0        0.000000    0.000000   -0.960000
 ---------------------------------------------------------------------

 SCF Done:  E(ROHF) =  -86.6211407628     A.U. after   41 cycles
 E2 =    -0.6217990887D+00 EUMP2 =    -0.87242939851491D+02
 CCSD(T)
 CCSD(T)= -0.87255134768D+02

 The electronic state is 6-SG.
 Alpha  occ. eigenvalues --   -3.55928  -2.33623  -2.31195  -2.31195  -0.50031
 Alpha  occ. eigenvalues --   -0.42477  -0.42477  -0.39139  -0.39139  -0.24693
 Alpha virt. eigenvalues --    0.01690   0.01871   0.01871   0.02411   0.06355
 Alpha virt. eigenvalues --    0.06471   0.06471   0.07925   0.07947   0.07947
 Alpha virt. eigenvalues --    0.08071   0.08071   0.09779   0.20491   0.22533

 Mulliken charges and spin densities:
               1          2
     1  Cr   0.418206   4.963741
     2  H   -0.418206   0.036259
 Sum of Mulliken charges =   0.00000   5.00000

 Dipole moment (field-independent basis, Debye):
    X=              0.0000    Y=              0.0000    Z=              1.9493  Tot=              1.9493
 Quadrupole moment (field-independent basis, Debye-Ang):
   XX=            -16.3828   YY=            -16.3828   ZZ=            -17.4573
   XY=              0.0000   XZ=              0.0000   YZ=              0.0000

 \\#P ROCCSD(T)=(maxcyc=150, Full, SaveAmplitudes, ReadAmplitudes)/Gen
 6\CCSD=-87.2330344\CCSD(T)=-87.2551348\RMSD=9.858e-09\PG=C*V [C*(H1Cr1
 Normal termination of Gaussian 16 at Sun Feb 25 17:00:40 2018.
