 Gaussian 16, Revision A.03,
 Gaussian 16:  ES64L-G16RevA.03 25-Dec-2016

 ----------------------------------------------------------------------
 #P ROCCSD(T)=(maxcyc=150, Full, SaveAmplitudes, ReadAmplitudes)/Gen 5d
  7f SCF=(maxcycles=300, VShift=400) Integral(NoXCTest) MaxDisk=500GB P
 op=Full Pseudo=Read Guess=Read IOp(5/15=2)
 ----------------------------------------------------------------------

 ---
 MnH
 ---
 Symbolic Z-matrix:
 Charge =  0 Multiplicity = 7

                         Standard orientation:
 ---------------------------------------------------------------------
 Center     Atomic      Atomic             Coordinates (Angstroms)
 Number     Number       Type             X           Y           Z
 ---------------------------------------------------------------------
      1         25           0        0.000000    0.000000    0.065385
      2          1           0        0.000000    0.000000   -1.634615
 ---------------------------------------------------------------------

 SCF Done:  E(ROHF) =  -103.798801355     A.U. after   34 cycles
 E2 =    -0.5738309055D+00 EUMP2 =    -0.10437263226020D+03
 CCSD(T)
 CCSD(T)= -0.10439490005D+03

 The electronic state is 7-SG.
 Alpha  occ. eigenvalues --   -4.14978  -2.77036  -2.77036  -2.76852  -0.64503
 Alpha  occ. eigenvalues --   -0.64503  -0.64297  -0.63814  -0.63814  -0.40873
 Alpha  occ. eigenvalues --   -0.26104
 Alpha virt. eigenvalues --    0.01253   0.01253   0.02325   0.03132   0.05732
 Alpha virt. eigenvalues --    0.05732   0.08300   0.08472   0.08472   0.08944
 Alpha virt. eigenvalues --    0.08944   0.09776   0.13899   0.19719   0.22685

 Mulliken charges and spin densities:
               1          2
     1  Mn   0.432376   5.958489
     2  H   -0.432376   0.041511
 Sum of Mulliken charges =  -0.00000   6.00000

 Dipole moment (field-independent basis, Debye):
    X=              0.0000    Y=              0.0000    Z=              1.3036  Tot=              1.3036
 Quadrupole moment (field-independent basis, Debye-Ang):
   XX=            -16.1937   YY=            -16.1937   ZZ=            -26.3744
   XY=              0.0000   XZ=              0.0000   YZ=              0.0000

 \\#P ROCCSD(T)=(maxcyc=150, Full, SaveAmplitudes, ReadAmplitudes)/Gen
 4SDQ=-104.3784646\CCSD=-104.3791945\CCSD(T)=-104.3949\RMSD=7.514e-09\P
 Normal termination of Gaussian 16 at Sat May  5 10:05:46 2018.
