 Gaussian 16, Revision A.03,
 Gaussian 16:  ES64L-G16RevA.03 25-Dec-2016

 ----------------------------------------------------------------------
 #P ROCCSD(T)=(MaxCyc=150, Full)/Gen SCF=(maxcycle=400) Pseudo=Read Int
 egral(NoXCTest) Pop=Regular MaxDisk=500GB Guess=Read IOp(5/15=2)
 ----------------------------------------------------------------------

 ---
 CuO
 ---
 Symbolic Z-matrix:
 Charge =  0 Multiplicity = 2

                         Standard orientation:
 ---------------------------------------------------------------------
 Center     Atomic      Atomic             Coordinates (Angstroms)
 Number     Number       Type             X           Y           Z
 ---------------------------------------------------------------------
      1         29           0        0.000000    0.000000    0.324324
      2          8           0        0.000000    0.000000   -1.175676
 ---------------------------------------------------------------------

 SCF Done:  E(ROHF) =  -211.637663846     A.U. after   20 cycles
 E2 =    -0.1388663347D+01 EUMP2 =    -0.21302632719278D+03
 CCSD(T)
 CCSD(T)= -0.21295167908D+03

 Unable to determine electronic state:  an orbital has unidentified symmetry.
 Alpha  occ. eigenvalues --   -5.30682  -3.43478  -3.41945  -3.41284  -1.28780
 Alpha  occ. eigenvalues --   -0.64727  -0.61147  -0.59301  -0.54652  -0.54651
 Alpha  occ. eigenvalues --   -0.48039  -0.42544  -0.38214
 Alpha virt. eigenvalues --   -0.00551   0.02663   0.02799   0.03599   0.04708
 Alpha virt. eigenvalues --    0.09207   0.09549   0.12035   0.13637   0.13649
 Alpha virt. eigenvalues --    0.14268   0.14304   0.14694   0.19117   0.21696

 Mulliken charges and spin densities:
               1          2
     1  Cu   0.707550   0.055011
     2  O   -0.707550   0.944989
 Sum of Mulliken charges =   0.00000   1.00000

 Dipole moment (field-independent basis, Debye):
    X=              0.0000    Y=              0.0000    Z=              4.8580  Tot=              4.8580
 Quadrupole moment (field-independent basis, Debye-Ang):
   XX=            -16.1584   YY=            -17.6652   ZZ=            -18.8676
   XY=              0.0000   XZ=              0.0000   YZ=              0.0000

 \\#P ROCCSD(T)=(MaxCyc=150, Full)/Gen SCF=(maxcycle=400) Pseudo=Read I
 .0263272\MP4SDQ=-212.9838508\CCSD=-212.8984824\CCSD(T)=-212.9516791\RM
 Normal termination of Gaussian 16 at Mon Mar 26 13:00:59 2018.
