 Gaussian 16, Revision A.03,
 Gaussian 16:  ES64L-G16RevA.03 25-Dec-2016

 ----------------------------------------------------------------------
 #P ROCCSD(T)=(MaxCyc=150, Full)/Gen SCF=(maxcycle=400) Pseudo=Read Int
 egral(NoXCTest) Pop=Regular MaxDisk=500GB Guess=Read IOp(5/15=2)
 ----------------------------------------------------------------------

 ---
 CuO
 ---
 Symbolic Z-matrix:
 Charge =  0 Multiplicity = 2

                         Standard orientation:
 ---------------------------------------------------------------------
 Center     Atomic      Atomic             Coordinates (Angstroms)
 Number     Number       Type             X           Y           Z
 ---------------------------------------------------------------------
      1         29           0        0.000000    0.000000    0.324324
      2          8           0        0.000000    0.000000   -1.175676
 ---------------------------------------------------------------------

 SCF Done:  E(ROHF) =  -211.632971061     A.U. after   25 cycles
 E2 =    -0.1324394298D+01 EUMP2 =    -0.21295736535918D+03
 CCSD(T)
 CCSD(T)= -0.21288564982D+03

 Unable to determine electronic state:  an orbital has unidentified symmetry.
 Alpha  occ. eigenvalues --   -5.30701  -3.43512  -3.41971  -3.41306  -1.28835
 Alpha  occ. eigenvalues --   -0.64722  -0.61142  -0.59316  -0.54649  -0.54647
 Alpha  occ. eigenvalues --   -0.48039  -0.42543  -0.38229
 Alpha virt. eigenvalues --   -0.00538   0.03003   0.03172   0.04017   0.05002
 Alpha virt. eigenvalues --    0.10724   0.11164   0.13732   0.19392   0.19878
 Alpha virt. eigenvalues --    0.19900   0.21395   0.21467   0.22448   0.26024

 Mulliken charges and spin densities:
               1          2
     1  Cu   0.865378   0.050922
     2  O   -0.865378   0.949078
 Sum of Mulliken charges =   0.00000   1.00000

 Dipole moment (field-independent basis, Debye):
    X=              0.0000    Y=              0.0000    Z=              4.8724  Tot=              4.8724
 Quadrupole moment (field-independent basis, Debye-Ang):
   XX=            -16.1676   YY=            -17.6910   ZZ=            -18.8560
   XY=              0.0000   XZ=              0.0000   YZ=              0.0000

 \\#P ROCCSD(T)=(MaxCyc=150, Full)/Gen SCF=(maxcycle=400) Pseudo=Read I
 .9573654\MP4SDQ=-212.9213347\CCSD=-212.8350837\CCSD(T)=-212.8856498\RM
 Normal termination of Gaussian 16 at Mon Mar 26 10:32:19 2018.
