 Gaussian 16, Revision A.03,
 Gaussian 16:  ES64L-G16RevA.03 25-Dec-2016

 ----------------------------------------------------------------------
 #P ROCCSD(T)=(maxcyc=150, Full, SaveAmplitudes, ReadAmplitudes)/Gen 5d
  7f SCF=(maxcycles=300) Integral(NoXCTest) MaxDisk=500GB Pop=Regular P
 seudo=Read Guess=Read IOp(5/15=2)
 ----------------------------------------------------------------------

 ---
 ScO
 ---
 Symbolic Z-matrix:
 Charge =  0 Multiplicity = 2

                         Standard orientation:
 ---------------------------------------------------------------------
 Center     Atomic      Atomic             Coordinates (Angstroms)
 Number     Number       Type             X           Y           Z
 ---------------------------------------------------------------------
      1         21           0        0.000000    0.000000    0.413793
      2          8           0        0.000000    0.000000   -1.086207
 ---------------------------------------------------------------------

 SCF Done:  E(ROHF) =  -62.0334930420     A.U. after   18 cycles
 E2 =    -0.6799015580D+00 EUMP2 =    -0.62713394599987D+02
 CCSD(T)
 CCSD(T)= -0.62740781971D+02

 The electronic state is 2-SG.
 Alpha  occ. eigenvalues --   -2.66281  -1.67647  -1.57151  -1.57151  -1.11464
 Alpha  occ. eigenvalues --   -0.47822  -0.47822  -0.44813  -0.22603
 Alpha virt. eigenvalues --    0.00596   0.00596   0.01953   0.02283   0.03703
 Alpha virt. eigenvalues --    0.03703   0.03845   0.03845   0.04122   0.04320
 Alpha virt. eigenvalues --    0.04320   0.06606   0.09800   0.09800   0.10898

 Mulliken charges and spin densities:
               1          2
     1  Sc   1.302683   0.978106
     2  O   -1.302683   0.021894
 Sum of Mulliken charges =  -0.00000   1.00000

 Dipole moment (field-independent basis, Debye):
    X=              0.0000    Y=              0.0000    Z=              2.7767  Tot=              2.7767
 Quadrupole moment (field-independent basis, Debye-Ang):
   XX=            -21.9799   YY=            -21.9799   ZZ=            -31.0887
   XY=              0.0000   XZ=              0.0000   YZ=              0.0000

 \\#P ROCCSD(T)=(maxcyc=150, Full, SaveAmplitudes, ReadAmplitudes)/Gen
 \CCSD=-62.7058195\CCSD(T)=-62.740782\RMSD=2.581e-09\PG=C*V [C*(O1Sc1)]
 Normal termination of Gaussian 16 at Wed Feb 21 01:12:54 2018.
