 Gaussian 16, Revision A.03,
 Gaussian 16:  ES64L-G16RevA.03 25-Dec-2016

 ----------------------------------------------------------------------
 #P ROCCSD(T)=(maxcyc=150, Full)/Gen 5d 7f SCF=(maxcycles=300) Integral
 (NoXCTest, DKHSO) MaxDisk=500GB Pop=Regular IOp(5/15=2) Guess=Read
 ----------------------------------------------------------------------

 ---
 ScH
 ---
 Symbolic Z-matrix:
 Charge =  0 Multiplicity = 1

                         Standard orientation:
 ---------------------------------------------------------------------
 Center     Atomic      Atomic             Coordinates (Angstroms)
 Number     Number       Type             X           Y           Z
 ---------------------------------------------------------------------
      1         21           0        0.000000    0.000000    0.045455
      2          1           0        0.000000    0.000000   -0.954545
 ---------------------------------------------------------------------

 SCF Done:  E(ROHF) =  -763.553182920     A.U. after   13 cycles
 E2 =    -0.7674268479D+00 EUMP2 =    -0.76432060976804D+03
 CCSD(T)
 CCSD(T)= -0.76435175828D+03

 The electronic state is 1-SG.
 Alpha  occ. eigenvalues -- -166.79751 -19.22899 -15.65433 -15.65433 -15.64791
 Alpha  occ. eigenvalues --   -2.59946  -1.66024  -1.56002  -1.56002  -0.47562
 Alpha  occ. eigenvalues --   -0.21297
 Alpha virt. eigenvalues --    0.01284   0.01417   0.01417   0.02345   0.03459
 Alpha virt. eigenvalues --    0.03916   0.03916   0.03957   0.03957   0.04734
 Alpha virt. eigenvalues --    0.05040   0.05040   0.09614   0.10957   0.10957

 Mulliken charges and spin densities:
               1          2
     1  Sc   0.512486   0.000000
     2  H   -0.512486   0.000000
 Sum of Mulliken charges =   0.00000   0.00000

 Dipole moment (field-independent basis, Debye):
    X=              0.0000    Y=              0.0000    Z=              1.2201  Tot=              1.2201
 Quadrupole moment (field-independent basis, Debye-Ang):
   XX=            -23.9504   YY=            -23.9504   ZZ=            -22.5132
   XY=              0.0000   XZ=              0.0000   YZ=              0.0000

 P ROCCSD(T)=(maxcyc=150, Full)/Gen 5d 7f SCF=(maxcycles=300) Integral(
 P2-0=-764.3206098\MP4SDQ=-764.334383\CCSD=-764.3342063\CCSD(T)=-764.35
 Normal termination of Gaussian 16 at Mon Feb 12 20:14:47 2018.
