 Gaussian 16, Revision A.03,
 Gaussian 16:  ES64L-G16RevA.03 25-Dec-2016

 ----------------------------------------------------------------------
 #P ROCCSD(T)=(MaxCyc=150, Full)/Gen SCF=(maxcycle=400, vshift=200) Pse
 udo=Read Integral(NoXCTest) Pop=Regular MaxDisk=500GB Guess=Read IOp(5
 /15=2)
 ----------------------------------------------------------------------

 ---
 FeH
 ---
 Symbolic Z-matrix:
 Charge =  0 Multiplicity = 4

                         Standard orientation:
 ---------------------------------------------------------------------
 Center     Atomic      Atomic             Coordinates (Angstroms)
 Number     Number       Type             X           Y           Z
 ---------------------------------------------------------------------
      1         26           0        0.000000    0.000000    0.044444
      2          1           0        0.000000    0.000000   -1.155556
 ---------------------------------------------------------------------

 SCF Done:  E(ROHF) =  -123.238811374     A.U. after   17 cycles
 E2 =    -0.8335467629D+00 EUMP2 =    -0.12407235813695D+03
 CCSD(T)
 CCSD(T)= -0.12406415805D+03

 Unable to determine electronic state:  partially filled degenerate orbitals.
 Alpha  occ. eigenvalues --   -4.22166  -2.85151  -2.82780  -2.82780  -0.55396
 Alpha  occ. eigenvalues --   -0.55396  -0.54962  -0.52889  -0.48010  -0.30447
 Alpha virt. eigenvalues --    0.00365   0.02184   0.02184   0.02332   0.03922
 Alpha virt. eigenvalues --    0.05925   0.06258   0.06258   0.06284   0.06293
 Alpha virt. eigenvalues --    0.07104   0.07104   0.08118   0.12907   0.17434

 Mulliken charges and spin densities:
               1          2
     1  Fe   0.296485   2.989138
     2  H   -0.296485   0.010862
 Sum of Mulliken charges =  -0.00000   3.00000

 Dipole moment (field-independent basis, Debye):
    X=              0.0000    Y=              0.0000    Z=              3.0713  Tot=              3.0713
 Quadrupole moment (field-independent basis, Debye-Ang):
   XX=            -16.6880   YY=            -16.6880   ZZ=            -15.9224
   XY=              0.0000   XZ=              0.0000   YZ=              0.0000

 \\#P ROCCSD(T)=(MaxCyc=150, Full)/Gen SCF=(maxcycle=400, vshift=200) P
 \PMP2-0=-124.0723581\MP4SDQ=-124.0434164\CCSD=-124.0328156\CCSD(T)=-12
 Normal termination of Gaussian 16 at Sat Mar 24 03:10:35 2018.
