 Gaussian 16, Revision A.03,
 Gaussian 16:  ES64L-G16RevA.03 25-Dec-2016

 ----------------------------------------------------------------------
 #P ROCCSD(T)=(MaxCyc=150, Full)/Gen SCF=(maxcycle=400, vshift=200) Pse
 udo=Read Integral(NoXCTest) Pop=Regular MaxDisk=500GB Guess=Read IOp(5
 /15=2)
 ----------------------------------------------------------------------

 ---
 FeH
 ---
 Symbolic Z-matrix:
 Charge =  0 Multiplicity = 4

                         Standard orientation:
 ---------------------------------------------------------------------
 Center     Atomic      Atomic             Coordinates (Angstroms)
 Number     Number       Type             X           Y           Z
 ---------------------------------------------------------------------
      1         26           0        0.000000    0.000000    0.044444
      2          1           0        0.000000    0.000000   -1.155556
 ---------------------------------------------------------------------

 SCF Done:  E(ROHF) =  -123.238639811     A.U. after   25 cycles
 E2 =    -0.8192918924D+00 EUMP2 =    -0.12405793170360D+03
 CCSD(T)
 CCSD(T)= -0.12405173292D+03

 Unable to determine electronic state:  partially filled degenerate orbitals.
 Alpha  occ. eigenvalues --   -4.22168  -2.85155  -2.82784  -2.82784  -0.55399
 Alpha  occ. eigenvalues --   -0.55399  -0.54962  -0.52892  -0.48008  -0.30447
 Alpha virt. eigenvalues --    0.00422   0.02247   0.02247   0.02603   0.04582
 Alpha virt. eigenvalues --    0.06260   0.06799   0.06799   0.06860   0.06871
 Alpha virt. eigenvalues --    0.07429   0.07429   0.09240   0.17151   0.18168

 Mulliken charges and spin densities:
               1          2
     1  Fe   0.298015   2.991372
     2  H   -0.298015   0.008628
 Sum of Mulliken charges =  -0.00000   3.00000

 Dipole moment (field-independent basis, Debye):
    X=              0.0000    Y=              0.0000    Z=              3.0711  Tot=              3.0711
 Quadrupole moment (field-independent basis, Debye-Ang):
   XX=            -16.6895   YY=            -16.6895   ZZ=            -15.9213
   XY=              0.0000   XZ=              0.0000   YZ=              0.0000

 \\#P ROCCSD(T)=(MaxCyc=150, Full)/Gen SCF=(maxcycle=400, vshift=200) P
 \PMP2-0=-124.0579317\MP4SDQ=-124.0316243\CCSD=-124.0208716\CCSD(T)=-12
 Normal termination of Gaussian 16 at Sat Mar 24 01:19:07 2018.
