 Gaussian 16, Revision A.03,
 Gaussian 16:  ES64L-G16RevA.03 25-Dec-2016

 ----------------------------------------------------------------------
 #P ROCCSD(T)=(MaxCyc=150, Full)/Gen SCF=(maxcycle=400, vshift=200) Pse
 udo=Read Integral(NoXCTest) Pop=Regular MaxDisk=500GB Guess=Read IOp(5
 /15=2)
 ----------------------------------------------------------------------

 ---
 FeH
 ---
 Symbolic Z-matrix:
 Charge =  0 Multiplicity = 4

                         Standard orientation:
 ---------------------------------------------------------------------
 Center     Atomic      Atomic             Coordinates (Angstroms)
 Number     Number       Type             X           Y           Z
 ---------------------------------------------------------------------
      1         26           0        0.000000    0.000000    0.044444
      2          1           0        0.000000    0.000000   -1.155556
 ---------------------------------------------------------------------

 SCF Done:  E(ROHF) =  -123.237139465     A.U. after   36 cycles
 E2 =    -0.7837051054D+00 EUMP2 =    -0.12402084457050D+03
 CCSD(T)
 CCSD(T)= -0.12401660530D+03

 Unable to determine electronic state:  an orbital has unidentified symmetry.
 Alpha  occ. eigenvalues --   -4.22193  -2.85178  -2.82804  -2.82804  -0.55399
 Alpha  occ. eigenvalues --   -0.55399  -0.54957  -0.52891  -0.48004  -0.30448
 Alpha virt. eigenvalues --    0.00454   0.02452   0.02452   0.02856   0.04726
 Alpha virt. eigenvalues --    0.08202   0.08202   0.09567   0.10248   0.10248
 Alpha virt. eigenvalues --    0.10333   0.10367   0.10529   0.16459   0.25121

 Mulliken charges and spin densities:
               1          2
     1  Fe   0.312566   2.991604
     2  H   -0.312566   0.008396
 Sum of Mulliken charges =  -0.00000   3.00000

 Dipole moment (field-independent basis, Debye):
    X=              0.0000    Y=              0.0000    Z=              3.0730  Tot=              3.0730
 Quadrupole moment (field-independent basis, Debye-Ang):
   XX=            -16.6978   YY=            -16.6978   ZZ=            -15.9177
   XY=              0.0000   XZ=              0.0000   YZ=              0.0000

 \\#P ROCCSD(T)=(MaxCyc=150, Full)/Gen SCF=(maxcycle=400, vshift=200) P
 PMP2-0=-124.0208446\MP4SDQ=-123.998158\CCSD=-123.9871162\CCSD(T)=-124.
 Normal termination of Gaussian 16 at Sat Mar 24 00:35:24 2018.
