 Gaussian 16, Revision A.03,
 Gaussian 16:  ES64L-G16RevA.03 25-Dec-2016

 ----------------------------------------------------------------------
 #P ROCCSD(T)=(MaxCyc=150, Full)/Gen SCF=(maxcycle=400, vshift=200) Pse
 udo=Read Integral(NoXCTest) Pop=Regular MaxDisk=500GB Guess=Read IOp(5
 /15=2)
 ----------------------------------------------------------------------

 ---
 CuO
 ---
 Symbolic Z-matrix:
 Charge =  0 Multiplicity = 2

                         Standard orientation:
 ---------------------------------------------------------------------
 Center     Atomic      Atomic             Coordinates (Angstroms)
 Number     Number       Type             X           Y           Z
 ---------------------------------------------------------------------
      1         29           0        0.000000    0.000000    0.410811
      2          8           0        0.000000    0.000000   -1.489189
 ---------------------------------------------------------------------

 SCF Done:  E(ROHF) =  -211.050448840     A.U. after   19 cycles
 E2 =    -0.1263995279D+01 EUMP2 =    -0.21231444411914D+03
 CCSD(T)
 CCSD(T)= -0.21225098562D+03

 Unable to determine electronic state:  an orbital has unidentified symmetry.
 Alpha  occ. eigenvalues --   -5.24757  -3.41821  -3.41816  -3.41682  -1.21142
 Alpha  occ. eigenvalues --   -0.55152  -0.53202  -0.52713  -0.52189  -0.52189
 Alpha  occ. eigenvalues --   -0.48408  -0.41250  -0.40724
 Alpha virt. eigenvalues --   -0.01773   0.02708   0.02859   0.03778   0.04571
 Alpha virt. eigenvalues --    0.10008   0.10282   0.13420   0.19215   0.19225
 Alpha virt. eigenvalues --    0.19424   0.20124   0.21568   0.22642   0.25943

 Mulliken charges and spin densities:
               1          2
     1  Cu   0.798405   0.010454
     2  O   -0.798405   0.989546
 Sum of Mulliken charges =  -0.00000   1.00000

 Dipole moment (field-independent basis, Debye):
    X=              0.0000    Y=              0.0000    Z=              6.3857  Tot=              6.3857
 Quadrupole moment (field-independent basis, Debye-Ang):
   XX=            -15.4715   YY=            -17.0484   ZZ=            -21.7484
   XY=              0.0000   XZ=              0.0000   YZ=              0.0000

 \\#P ROCCSD(T)=(MaxCyc=150, Full)/Gen SCF=(maxcycle=400, vshift=200) P
 \PMP2-0=-212.3144441\MP4SDQ=-212.2763649\CCSD=-212.2074717\CCSD(T)=-21
 Normal termination of Gaussian 16 at Sat May  5 21:34:02 2018.
