 Gaussian 16, Revision A.03,
 Gaussian 16:  ES64L-G16RevA.03 25-Dec-2016

 ----------------------------------------------------------------------
 #P ROCCSD(T)=(MaxCyc=150, Full)/Gen SCF=(maxcycle=400, vshift=200) Pse
 udo=Read Integral(NoXCTest) Pop=Regular MaxDisk=500GB Guess=Read IOp(5
 /15=2)
 ----------------------------------------------------------------------

 ---
 CuO
 ---
 Symbolic Z-matrix:
 Charge =  0 Multiplicity = 2

                         Standard orientation:
 ---------------------------------------------------------------------
 Center     Atomic      Atomic             Coordinates (Angstroms)
 Number     Number       Type             X           Y           Z
 ---------------------------------------------------------------------
      1         29           0        0.000000    0.000000    0.410811
      2          8           0        0.000000    0.000000   -1.489189
 ---------------------------------------------------------------------

 SCF Done:  E(ROHF) =  -211.054359787     A.U. after   19 cycles
 E2 =    -0.1327833226D+01 EUMP2 =    -0.21238219301342D+03
 CCSD(T)
 CCSD(T)= -0.21231592880D+03

 Unable to determine electronic state:  an orbital has unidentified symmetry.
 Alpha  occ. eigenvalues --   -5.24743  -3.41797  -3.41789  -3.41660  -1.21098
 Alpha  occ. eigenvalues --   -0.55153  -0.53200  -0.52702  -0.52188  -0.52187
 Alpha  occ. eigenvalues --   -0.48410  -0.41253  -0.40717
 Alpha virt. eigenvalues --   -0.01769   0.02420   0.02545   0.03331   0.04339
 Alpha virt. eigenvalues --    0.08568   0.08781   0.11378   0.13148   0.13152
 Alpha virt. eigenvalues --    0.14543   0.14612   0.15083   0.18728   0.21256

 Mulliken charges and spin densities:
               1          2
     1  Cu   0.763666   0.010084
     2  O   -0.763666   0.989916
 Sum of Mulliken charges =  -0.00000   1.00000

 Dipole moment (field-independent basis, Debye):
    X=              0.0000    Y=              0.0000    Z=              6.3706  Tot=              6.3706
 Quadrupole moment (field-independent basis, Debye-Ang):
   XX=            -15.4634   YY=            -17.0224   ZZ=            -21.7581
   XY=              0.0000   XZ=              0.0000   YZ=              0.0000

 \\#P ROCCSD(T)=(MaxCyc=150, Full)/Gen SCF=(maxcycle=400, vshift=200) P
 PMP2-0=-212.382193\MP4SDQ=-212.3382417\CCSD=-212.2699266\CCSD(T)=-212.
 Normal termination of Gaussian 16 at Sun May  6 00:11:57 2018.
