 Gaussian 16, Revision A.03,
 Gaussian 16:  ES64L-G16RevA.03 25-Dec-2016

 ----------------------------------------------------------------------
 #P ROCCSD(T)=(maxcyc=150, Full)/Gen 5d 7f SCF=(maxcycles=300) Integral
 (NoXCTest) MaxDisk=500GB Pop=Regular Pseudo=Read IOp(5/15=2) Guess=Rea
 d
 ----------------------------------------------------------------------

 ---
 ScH
 ---
 Symbolic Z-matrix:
 Charge =  0 Multiplicity = 1

                         Standard orientation:
 ---------------------------------------------------------------------
 Center     Atomic      Atomic             Coordinates (Angstroms)
 Number     Number       Type             X           Y           Z
 ---------------------------------------------------------------------
      1         21           0        0.000000    0.000000    0.095455
      2          1           0        0.000000    0.000000   -2.004545
 ---------------------------------------------------------------------

 SCF Done:  E(ROHF) =  -46.7836571393     A.U. after    9 cycles
 E2 =    -0.4256060573D+00 EUMP2 =    -0.47209263196609D+02
 CCSD(T)
 CCSD(T)= -0.47254322760D+02

 The electronic state is 1-SG.
 Alpha  occ. eigenvalues --   -2.75770  -1.69031  -1.69031  -1.68816  -0.36865
 Alpha  occ. eigenvalues --   -0.24411
 Alpha virt. eigenvalues --    0.00925   0.00925   0.01131   0.01833   0.02562
 Alpha virt. eigenvalues --    0.02562   0.02684   0.02684   0.02754   0.03510
 Alpha virt. eigenvalues --    0.03791   0.03791   0.06213   0.06213   0.06971

 Mulliken charges and spin densities:
               1          2
     1  Sc   0.360494   0.000000
     2  H   -0.360494   0.000000
 Sum of Mulliken charges =   0.00000   0.00000

 Dipole moment (field-independent basis, Debye):
    X=              0.0000    Y=              0.0000    Z=              2.5645  Tot=              2.5645
 Quadrupole moment (field-independent basis, Debye-Ang):
   XX=            -22.7417   YY=            -22.7417   ZZ=            -29.1601
   XY=              0.0000   XZ=              0.0000   YZ=              0.0000

 P ROCCSD(T)=(maxcyc=150, Full)/Gen 5d 7f SCF=(maxcycles=300) Integral(
 PMP2-0=-47.2092632\MP4SDQ=-47.2329007\CCSD=-47.2336699\CCSD(T)=-47.254
 Normal termination of Gaussian 16 at Wed Feb 14 11:54:50 2018.
