 Gaussian 16, Revision A.03,
 Gaussian 16:  ES64L-G16RevA.03 25-Dec-2016

 ----------------------------------------------------------------------
 #P ROCCSD(T)=(maxcyc=150, Full, SaveAmplitudes, ReadAmplitudes)/Gen 5d
  7f SCF=(maxcycles=300) Integral(NoXCTest, DKHSO) MaxDisk=500GB Pop=Re
 gular Guess=Read IOp(5/15=2)
 ----------------------------------------------------------------------

 ---
 MnO
 ---
 Symbolic Z-matrix:
 Charge =  0 Multiplicity = 6

                         Standard orientation:
 ---------------------------------------------------------------------
 Center     Atomic      Atomic             Coordinates (Angstroms)
 Number     Number       Type             X           Y           Z
 ---------------------------------------------------------------------
      1         25           0        0.000000    0.000000    0.436364
      2          8           0        0.000000    0.000000   -1.363636
 ---------------------------------------------------------------------

 SCF Done:  E(ROHF) =  -1232.21996051     A.U. after   30 cycles
 E2 =    -0.1336344836D+01 EUMP2 =    -0.12335563053485D+04
 CCSD(T)
 CCSD(T)= -0.12335708572D+04

 The electronic state is 6-SG.
 Alpha  occ. eigenvalues -- -242.51169 -29.61218 -24.96860 -24.96860 -24.96367
 Alpha  occ. eigenvalues --  -20.44992  -4.09514  -2.75018  -2.75018  -2.74405
 Alpha  occ. eigenvalues --   -1.09385  -0.64966  -0.64966  -0.64677  -0.64677
 Alpha  occ. eigenvalues --   -0.61400  -0.33806  -0.33806  -0.33201
 Alpha virt. eigenvalues --   -0.05139   0.01407   0.01407   0.01668   0.03828
 Alpha virt. eigenvalues --    0.06452   0.06452   0.08200   0.08361   0.08361
 Alpha virt. eigenvalues --    0.09462   0.09462   0.12886   0.14029   0.22707

 Mulliken charges and spin densities:
               1          2
     1  Mn   1.128623   4.929015
     2  O   -1.128623   0.070985
 Sum of Mulliken charges =  -0.00000   5.00000

 Dipole moment (field-independent basis, Debye):
    X=              0.0000    Y=              0.0000    Z=              9.4107  Tot=              9.4107
 Quadrupole moment (field-independent basis, Debye-Ang):
   XX=            -19.3871   YY=            -19.3871   ZZ=            -24.9070
   XY=              0.0000   XZ=              0.0000   YZ=              0.0000

 \\#P ROCCSD(T)=(maxcyc=150, Full, SaveAmplitudes, ReadAmplitudes)/Gen
 .5399386\CCSD=-1233.52838\CCSD(T)=-1233.5708572\RMSD=8.918e-09\PG=C*V
 Normal termination of Gaussian 16 at Wed Mar  7 01:18:45 2018.
