 Gaussian 16, Revision A.03,
 Gaussian 16:  ES64L-G16RevA.03 25-Dec-2016

 ----------------------------------------------------------------------
 #P ROCCSD(T)=(maxcyc=150, FrzINGC)/Gen 5d 7f SCF=(maxcycles=300) Integ
 ral(NoXCTest, DKHSO) MaxDisk=500GB Pop=Regular IOp(5/15=2) Guess=Read
 ----------------------------------------------------------------------

 ---
 ScH
 ---
 Symbolic Z-matrix:
 Charge =  0 Multiplicity = 1

                         Standard orientation:
 ---------------------------------------------------------------------
 Center     Atomic      Atomic             Coordinates (Angstroms)
 Number     Number       Type             X           Y           Z
 ---------------------------------------------------------------------
      1         21           0        0.000000    0.000000    0.090909
      2          1           0        0.000000    0.000000   -1.909091
 ---------------------------------------------------------------------

 SCF Done:  E(ROHF) =  -763.825959907     A.U. after   10 cycles
 E2 =    -0.3901348998D+00 EUMP2 =    -0.76421609480720D+03
 CCSD(T)
 CCSD(T)= -0.76426148085D+03

 The electronic state is 1-SG.
 Alpha  occ. eigenvalues -- -166.94347 -19.40003 -15.82337 -15.82337 -15.81534
 Alpha  occ. eigenvalues --   -2.70623  -1.68047  -1.68047  -1.67833  -0.38140
 Alpha  occ. eigenvalues --   -0.23968
 Alpha virt. eigenvalues --    0.00967   0.00967   0.01325   0.02016   0.02820
 Alpha virt. eigenvalues --    0.02820   0.02942   0.02942   0.02993   0.03889
 Alpha virt. eigenvalues --    0.03889   0.03940   0.06691   0.06691   0.07466

 Mulliken charges and spin densities:
               1          2
     1  Sc   0.259605   0.000000
     2  H   -0.259605   0.000000
 Sum of Mulliken charges =  -0.00000   0.00000

 Dipole moment (field-independent basis, Debye):
    X=              0.0000    Y=              0.0000    Z=              2.0992  Tot=              2.0992
 Quadrupole moment (field-independent basis, Debye-Ang):
   XX=            -23.3577   YY=            -23.3577   ZZ=            -29.0263
   XY=              0.0000   XZ=              0.0000   YZ=              0.0000

  ROCCSD(T)=(maxcyc=150, FrzINGC)/Gen 5d 7f SCF=(maxcycles=300) Integra
 PMP2-0=-764.2160948\MP4SDQ=-764.2422284\CCSD=-764.2434404\CCSD(T)=-764
 Normal termination of Gaussian 16 at Tue Feb 13 20:39:53 2018.
