 Gaussian 16, Revision A.03,
 Gaussian 16:  ES64L-G16RevA.03 25-Dec-2016

 ----------------------------------------------------------------------
 #P ROCCSD(T)=(MaxCyc=150, Full)/Gen SCF=(maxcycle=400, vshift=200) Int
 egral(DKHSO, NoXCTest) Pop=Regular MaxDisk=500GB Guess=Read IOp(5/15=2
 )
 ----------------------------------------------------------------------

 ---
 ZnH
 ---
 Symbolic Z-matrix:
 Charge =  0 Multiplicity = 2

                         Standard orientation:
 ---------------------------------------------------------------------
 Center     Atomic      Atomic             Coordinates (Angstroms)
 Number     Number       Type             X           Y           Z
 ---------------------------------------------------------------------
      1         30           0        0.000000    0.000000    0.058065
      2          1           0        0.000000    0.000000   -1.741935
 ---------------------------------------------------------------------

 SCF Done:  E(ROHF) =  -1794.79665520     A.U. after   21 cycles
 E2 =    -0.1472420941D+01 EUMP2 =    -0.17962690761416D+04
 CCSD(T)
 CCSD(T)= -0.17961991170D+04

 The electronic state is 2-SG.
 Alpha  occ. eigenvalues -- -357.59979 -45.36563 -39.16881 -39.16881 -39.16768
 Alpha  occ. eigenvalues --   -5.83593  -3.91554  -3.91554  -3.91338  -0.80366
 Alpha  occ. eigenvalues --   -0.80366  -0.80003  -0.79871  -0.79871  -0.43730
 Alpha  occ. eigenvalues --   -0.28402
 Alpha virt. eigenvalues --    0.01972   0.01972   0.02965   0.03812   0.07514
 Alpha virt. eigenvalues --    0.07514   0.08749   0.15812   0.17170   0.23771
 Alpha virt. eigenvalues --    0.23771   0.24801   0.24801   0.25142   0.29537

 Mulliken charges and spin densities:
               1          2
     1  Zn   0.361899   0.901379
     2  H   -0.361899   0.098621
 Sum of Mulliken charges =  -0.00000   1.00000

 Dipole moment (field-independent basis, Debye):
    X=              0.0000    Y=              0.0000    Z=              1.4076  Tot=              1.4076
 Quadrupole moment (field-independent basis, Debye-Ang):
   XX=            -14.9984   YY=            -14.9984   ZZ=            -22.0776
   XY=              0.0000   XZ=              0.0000   YZ=              0.0000

 \\#P ROCCSD(T)=(MaxCyc=150, Full)/Gen SCF=(maxcycle=400, vshift=200) I
 8\CCSD(T)=-1796.199117\RMSD=9.321e-09\PG=C*V [C*(H1Zn1)]\\@
 Normal termination of Gaussian 16 at Sat Apr 21 10:25:46 2018.
