 Gaussian 16, Revision A.03,
 Gaussian 16:  ES64L-G16RevA.03 25-Dec-2016

 ----------------------------------------------------------------------
 #P ROCCSD(T)=(MaxCyc=150, Full)/Gen SCF=(maxcycle=400, vshift=200) Pse
 udo=Read Integral(NoXCTest) Pop=Regular MaxDisk=500GB Guess=Read IOp(5
 /15=2)
 ----------------------------------------------------------------------

 ---
 CoH
 ---
 Symbolic Z-matrix:
 Charge =  0 Multiplicity = 3

                         Standard orientation:
 ---------------------------------------------------------------------
 Center     Atomic      Atomic             Coordinates (Angstroms)
 Number     Number       Type             X           Y           Z
 ---------------------------------------------------------------------
      1         27           0        0.000000    0.000000    0.050000
      2          1           0        0.000000    0.000000   -1.350000
 ---------------------------------------------------------------------

 SCF Done:  E(ROHF) =  -144.795334766     A.U. after   27 cycles
 E2 =    -0.9329172096D+00 EUMP2 =    -0.14572825197576D+03
 CCSD(T)
 CCSD(T)= -0.14570168284D+03

 Unable to determine electronic state:  partially filled degenerate orbitals.
 Alpha  occ. eigenvalues --   -4.53792  -2.95634  -2.95524  -2.95524  -0.49678
 Alpha  occ. eigenvalues --   -0.48799  -0.44265  -0.44265  -0.44234  -0.32441
 Alpha virt. eigenvalues --    0.00211   0.02378   0.02378   0.02653   0.04355
 Alpha virt. eigenvalues --    0.06449   0.06655   0.06666   0.06879   0.06879
 Alpha virt. eigenvalues --    0.08244   0.08244   0.08663   0.14771   0.18901

 Mulliken charges and spin densities:
               1          2
     1  Co   0.348385   1.980073
     2  H   -0.348385   0.019927
 Sum of Mulliken charges =  -0.00000   2.00000

 Dipole moment (field-independent basis, Debye):
    X=              0.0000    Y=              0.0000    Z=              4.0795  Tot=              4.0795
 Quadrupole moment (field-independent basis, Debye-Ang):
   XX=            -13.9194   YY=            -13.9194   ZZ=            -17.1388
   XY=              0.0000   XZ=              0.0000   YZ=              0.0000

 \\#P ROCCSD(T)=(MaxCyc=150, Full)/Gen SCF=(maxcycle=400, vshift=200) P
 PMP2-0=-145.728252\MP4SDQ=-145.6944012\CCSD=-145.6682863\CCSD(T)=-145.
 Normal termination of Gaussian 16 at Thu May  3 18:10:58 2018.
