 Gaussian 16, Revision A.03,
 Gaussian 16:  ES64L-G16RevA.03 25-Dec-2016

 ----------------------------------------------------------------------
 #P ROCCSD(T)=(MaxCyc=150, Full)/Gen SCF=(maxcycle=400, vshift=200) Pse
 udo=Read Integral(NoXCTest) Pop=Regular MaxDisk=500GB Guess=Read IOp(5
 /15=2)
 ----------------------------------------------------------------------

 ---
 CoH
 ---
 Symbolic Z-matrix:
 Charge =  0 Multiplicity = 3

                         Standard orientation:
 ---------------------------------------------------------------------
 Center     Atomic      Atomic             Coordinates (Angstroms)
 Number     Number       Type             X           Y           Z
 ---------------------------------------------------------------------
      1         27           0        0.000000    0.000000    0.050000
      2          1           0        0.000000    0.000000   -1.350000
 ---------------------------------------------------------------------

 SCF Done:  E(ROHF) =  -144.793268619     A.U. after   65 cycles
 E2 =    -0.8714263871D+00 EUMP2 =    -0.14566469500603D+03
 CCSD(T)
 CCSD(T)= -0.14564199293D+03

 Unable to determine electronic state:  partially filled degenerate orbitals.
 Alpha  occ. eigenvalues --   -4.53803  -2.95652  -2.95543  -2.95543  -0.49680
 Alpha  occ. eigenvalues --   -0.48801  -0.44253  -0.44253  -0.44226  -0.32443
 Alpha virt. eigenvalues --    0.00310   0.02706   0.02706   0.03247   0.05297
 Alpha virt. eigenvalues --    0.09453   0.09453   0.10238   0.11372   0.11414
 Alpha virt. eigenvalues --    0.11487   0.11570   0.11570   0.18982   0.25748

 Mulliken charges and spin densities:
               1          2
     1  Co   0.347894   1.972671
     2  H   -0.347894   0.027329
 Sum of Mulliken charges =   0.00000   2.00000

 Dipole moment (field-independent basis, Debye):
    X=              0.0000    Y=              0.0000    Z=              4.0832  Tot=              4.0832
 Quadrupole moment (field-independent basis, Debye-Ang):
   XX=            -13.9315   YY=            -13.9315   ZZ=            -17.1354
   XY=              0.0000   XZ=              0.0000   YZ=              0.0000

 \\#P ROCCSD(T)=(MaxCyc=150, Full)/Gen SCF=(maxcycle=400, vshift=200) P
 PMP2-0=-145.664695\MP4SDQ=-145.6378068\CCSD=-145.6107873\CCSD(T)=-145.
 Normal termination of Gaussian 16 at Thu May  3 15:11:53 2018.
