 Gaussian 16, Revision A.03,
 Gaussian 16:  ES64L-G16RevA.03 25-Dec-2016

 ----------------------------------------------------------------------
 #P ROCCSD(T)=(MaxCyc=150, Full)/Gen SCF=(maxcycle=400, vshift=200) Pse
 udo=Read Integral(NoXCTest) Pop=Regular MaxDisk=500GB Guess=Read IOp(5
 /15=2)
 ----------------------------------------------------------------------

 ---
 CoH
 ---
 Symbolic Z-matrix:
 Charge =  0 Multiplicity = 3

                         Standard orientation:
 ---------------------------------------------------------------------
 Center     Atomic      Atomic             Coordinates (Angstroms)
 Number     Number       Type             X           Y           Z
 ---------------------------------------------------------------------
      1         27           0        0.000000    0.000000    0.050000
      2          1           0        0.000000    0.000000   -1.350000
 ---------------------------------------------------------------------

 SCF Done:  E(ROHF) =  -144.794988676     A.U. after   35 cycles
 E2 =    -0.9127947492D+00 EUMP2 =    -0.14570778342486D+03
 CCSD(T)
 CCSD(T)= -0.14568347093D+03

 Unable to determine electronic state:  partially filled degenerate orbitals.
 Alpha  occ. eigenvalues --   -4.53790  -2.95637  -2.95527  -2.95527  -0.49681
 Alpha  occ. eigenvalues --   -0.48801  -0.44259  -0.44259  -0.44229  -0.32441
 Alpha virt. eigenvalues --    0.00277   0.02458   0.02458   0.02956   0.05046
 Alpha virt. eigenvalues --    0.06993   0.07366   0.07379   0.07558   0.07558
 Alpha virt. eigenvalues --    0.08641   0.08641   0.09942   0.18964   0.20232

 Mulliken charges and spin densities:
               1          2
     1  Co   0.371966   1.990029
     2  H   -0.371966   0.009971
 Sum of Mulliken charges =  -0.00000   2.00000

 Dipole moment (field-independent basis, Debye):
    X=              0.0000    Y=              0.0000    Z=              4.0800  Tot=              4.0800
 Quadrupole moment (field-independent basis, Debye-Ang):
   XX=            -13.9202   YY=            -13.9202   ZZ=            -17.1383
   XY=              0.0000   XZ=              0.0000   YZ=              0.0000

 \\#P ROCCSD(T)=(MaxCyc=150, Full)/Gen SCF=(maxcycle=400, vshift=200) P
 \PMP2-0=-145.7077834\MP4SDQ=-145.6771501\CCSD=-145.6506804\CCSD(T)=-14
 Normal termination of Gaussian 16 at Thu May  3 15:56:12 2018.
