 Gaussian 16, Revision A.03,
 Gaussian 16:  ES64L-G16RevA.03 25-Dec-2016

 ----------------------------------------------------------------------
 #P ROCCSD(T)=(MaxCyc=150, Full)/Gen SCF=(maxcycle=400, vshift=200) Pse
 udo=Read Integral(NoXCTest) Pop=Regular MaxDisk=500GB Guess=Read IOp(5
 /15=2)
 ----------------------------------------------------------------------

 ---
 ZnH
 ---
 Symbolic Z-matrix:
 Charge =  0 Multiplicity = 2

                         Standard orientation:
 ---------------------------------------------------------------------
 Center     Atomic      Atomic             Coordinates (Angstroms)
 Number     Number       Type             X           Y           Z
 ---------------------------------------------------------------------
      1         30           0        0.000000    0.000000    0.041935
      2          1           0        0.000000    0.000000   -1.258065
 ---------------------------------------------------------------------

 SCF Done:  E(ROHF) =  -226.462860733     A.U. after   19 cycles
 E2 =    -0.1099215383D+01 EUMP2 =    -0.22756207611655D+03
 CCSD(T)
 CCSD(T)= -0.22750637178D+03

 The electronic state is 2-SG.
 Alpha  occ. eigenvalues --   -5.90402  -3.97689  -3.97340  -3.97340  -0.81733
 Alpha  occ. eigenvalues --   -0.80198  -0.80198  -0.79995  -0.79995  -0.48467
 Alpha  occ. eigenvalues --   -0.26897
 Alpha virt. eigenvalues --    0.02029   0.02029   0.02512   0.03756   0.06832
 Alpha virt. eigenvalues --    0.06832   0.07983   0.14384   0.17723   0.17850
 Alpha virt. eigenvalues --    0.17850   0.18206   0.18206   0.21715   0.23195

 Mulliken charges and spin densities:
               1          2
     1  Zn   0.268568   0.939930
     2  H   -0.268568   0.060070
 Sum of Mulliken charges =  -0.00000   1.00000

 Dipole moment (field-independent basis, Debye):
    X=              0.0000    Y=              0.0000    Z=             -0.0374  Tot=              0.0374
 Quadrupole moment (field-independent basis, Debye-Ang):
   XX=            -14.4109   YY=            -14.4109   ZZ=            -20.5647
   XY=              0.0000   XZ=              0.0000   YZ=              0.0000

 \\#P ROCCSD(T)=(MaxCyc=150, Full)/Gen SCF=(maxcycle=400, vshift=200) P
 CCSD(T)=-227.5063718\RMSD=5.221e-09\PG=C*V [C*(H1Zn1)]\\@
 Normal termination of Gaussian 16 at Sat Apr 21 11:19:11 2018.
