 Gaussian 16, Revision A.03,
 Gaussian 16:  ES64L-G16RevA.03 25-Dec-2016

 ----------------------------------------------------------------------
 #P ROCCSD(T)=(MaxCyc=150, Full)/Gen SCF=(maxcycle=400, vshift=200) Pse
 udo=Read Integral(NoXCTest) Pop=Regular MaxDisk=500GB Guess=Read IOp(5
 /15=2)
 ----------------------------------------------------------------------

 ---
 ZnH
 ---
 Symbolic Z-matrix:
 Charge =  0 Multiplicity = 2

                         Standard orientation:
 ---------------------------------------------------------------------
 Center     Atomic      Atomic             Coordinates (Angstroms)
 Number     Number       Type             X           Y           Z
 ---------------------------------------------------------------------
      1         30           0        0.000000    0.000000    0.041935
      2          1           0        0.000000    0.000000   -1.258065
 ---------------------------------------------------------------------

 SCF Done:  E(ROHF) =  -226.461664500     A.U. after   19 cycles
 E2 =    -0.1044597725D+01 EUMP2 =    -0.22750626222467D+03
 CCSD(T)
 CCSD(T)= -0.22745143856D+03

 The electronic state is 2-SG.
 Alpha  occ. eigenvalues --   -5.90411  -3.97702  -3.97356  -3.97356  -0.81737
 Alpha  occ. eigenvalues --   -0.80204  -0.80204  -0.79999  -0.79999  -0.48470
 Alpha  occ. eigenvalues --   -0.26897
 Alpha virt. eigenvalues --    0.02157   0.02157   0.02673   0.04101   0.07787
 Alpha virt. eigenvalues --    0.07787   0.08931   0.15925   0.19132   0.24430
 Alpha virt. eigenvalues --    0.24430   0.25123   0.25123   0.26492   0.28814

 Mulliken charges and spin densities:
               1          2
     1  Zn   0.300691   0.954732
     2  H   -0.300691   0.045268
 Sum of Mulliken charges =  -0.00000   1.00000

 Dipole moment (field-independent basis, Debye):
    X=              0.0000    Y=              0.0000    Z=             -0.0372  Tot=              0.0372
 Quadrupole moment (field-independent basis, Debye-Ang):
   XX=            -14.4157   YY=            -14.4157   ZZ=            -20.5605
   XY=              0.0000   XZ=              0.0000   YZ=              0.0000

 \\#P ROCCSD(T)=(MaxCyc=150, Full)/Gen SCF=(maxcycle=400, vshift=200) P
 CCSD(T)=-227.4514386\RMSD=5.321e-09\PG=C*V [C*(H1Zn1)]\\@
 Normal termination of Gaussian 16 at Sat Apr 21 10:26:50 2018.
