 Gaussian 16, Revision A.03,
 Gaussian 16:  ES64L-G16RevA.03 25-Dec-2016

 ----------------------------------------------------------------------
 #P ROCCSD(T)=(MaxCyc=150, Full)/Gen SCF=(maxcycle=400, vshift=200) Pse
 udo=Read Integral(NoXCTest) Pop=Regular MaxDisk=500GB Guess=Read IOp(5
 /15=2)
 ----------------------------------------------------------------------

 ---
 ZnH
 ---
 Symbolic Z-matrix:
 Charge =  0 Multiplicity = 2

                         Standard orientation:
 ---------------------------------------------------------------------
 Center     Atomic      Atomic             Coordinates (Angstroms)
 Number     Number       Type             X           Y           Z
 ---------------------------------------------------------------------
      1         30           0        0.000000    0.000000    0.041935
      2          1           0        0.000000    0.000000   -1.258065
 ---------------------------------------------------------------------

 SCF Done:  E(ROHF) =  -226.462986747     A.U. after   19 cycles
 E2 =    -0.1125647700D+01 EUMP2 =    -0.22758863444653D+03
 CCSD(T)
 CCSD(T)= -0.22753095359D+03

 The electronic state is 2-SG.
 Alpha  occ. eigenvalues --   -5.90402  -3.97688  -3.97339  -3.97339  -0.81731
 Alpha  occ. eigenvalues --   -0.80197  -0.80197  -0.79994  -0.79994  -0.48468
 Alpha  occ. eigenvalues --   -0.26898
 Alpha virt. eigenvalues --    0.01965   0.01965   0.02184   0.03369   0.06407
 Alpha virt. eigenvalues --    0.06407   0.06924   0.11849   0.14018   0.15324
 Alpha virt. eigenvalues --    0.15324   0.15524   0.15524   0.18973   0.20678

 Mulliken charges and spin densities:
               1          2
     1  Zn   0.284184   0.940984
     2  H   -0.284184   0.059016
 Sum of Mulliken charges =  -0.00000   1.00000

 Dipole moment (field-independent basis, Debye):
    X=              0.0000    Y=              0.0000    Z=             -0.0376  Tot=              0.0376
 Quadrupole moment (field-independent basis, Debye-Ang):
   XX=            -14.4092   YY=            -14.4092   ZZ=            -20.5647
   XY=              0.0000   XZ=              0.0000   YZ=              0.0000

 \\#P ROCCSD(T)=(MaxCyc=150, Full)/Gen SCF=(maxcycle=400, vshift=200) P
 CCSD(T)=-227.5309536\RMSD=3.196e-09\PG=C*V [C*(H1Zn1)]\\@
 Normal termination of Gaussian 16 at Mon Apr 30 08:36:06 2018.
