 Gaussian 16, Revision A.03,
 Gaussian 16:  ES64L-G16RevA.03 25-Dec-2016

 ----------------------------------------------------------------------
 #P ROCCSD(T)=(maxcyc=150, Full)/Gen 5d 7f SCF=(maxcycles=300) Integral
 (NoXCTest) MaxDisk=500GB Pop=Regular Pseudo=Read IOp(5/15=2) Guess=Rea
 d
 ----------------------------------------------------------------------

 ---
 ScH
 ---
 Symbolic Z-matrix:
 Charge =  0 Multiplicity = 1

                         Standard orientation:
 ---------------------------------------------------------------------
 Center     Atomic      Atomic             Coordinates (Angstroms)
 Number     Number       Type             X           Y           Z
 ---------------------------------------------------------------------
      1         21           0        0.000000    0.000000    0.086364
      2          1           0        0.000000    0.000000   -1.813636
 ---------------------------------------------------------------------

 SCF Done:  E(ROHF) =  -46.5948377550     A.U. after   12 cycles
 E2 =    -0.4047370149D+00 EUMP2 =    -0.46999574769909D+02
 CCSD(T)
 CCSD(T)= -0.47045551515D+02

 The electronic state is 1-SG.
 Alpha  occ. eigenvalues --   -2.70683  -1.67499  -1.67499  -1.67369  -0.39209
 Alpha  occ. eigenvalues --   -0.23587
 Alpha virt. eigenvalues --    0.01097   0.01097   0.01447   0.02242   0.03570
 Alpha virt. eigenvalues --    0.03809   0.03809   0.03931   0.03931   0.04459
 Alpha virt. eigenvalues --    0.04459   0.04568   0.07863   0.07863   0.08790

 Mulliken charges and spin densities:
               1          2
     1  Sc   0.330566   0.000000
     2  H   -0.330566  -0.000000
 Sum of Mulliken charges =  -0.00000   0.00000

 Dipole moment (field-independent basis, Debye):
    X=              0.0000    Y=              0.0000    Z=              1.8428  Tot=              1.8428
 Quadrupole moment (field-independent basis, Debye-Ang):
   XX=            -23.0241   YY=            -23.0241   ZZ=            -27.5737
   XY=              0.0000   XZ=              0.0000   YZ=              0.0000

 P ROCCSD(T)=(maxcyc=150, Full)/Gen 5d 7f SCF=(maxcycles=300) Integral(
 PMP2-0=-46.9995748\MP4SDQ=-47.0270458\CCSD=-47.0269964\CCSD(T)=-47.045
 Normal termination of Gaussian 16 at Wed Feb 14 06:27:12 2018.
