 Gaussian 16, Revision A.03,
 Gaussian 16:  ES64L-G16RevA.03 25-Dec-2016

 ----------------------------------------------------------------------
 #P ROCCSD(T)=(maxcyc=150, FrzINGC)/Gen 5d 7f SCF=(maxcycles=300) Integ
 ral(NoXCTest, DKHSO) MaxDisk=500GB Pop=Regular IOp(5/15=2) Guess=Read
 ----------------------------------------------------------------------

 ---
 ScH
 ---
 Symbolic Z-matrix:
 Charge =  0 Multiplicity = 1

                         Standard orientation:
 ---------------------------------------------------------------------
 Center     Atomic      Atomic             Coordinates (Angstroms)
 Number     Number       Type             X           Y           Z
 ---------------------------------------------------------------------
      1         21           0        0.000000    0.000000    0.081818
      2          1           0        0.000000    0.000000   -1.718182
 ---------------------------------------------------------------------

 SCF Done:  E(ROHF) =  -763.833027245     A.U. after   12 cycles
 E2 =    -0.3998659123D+00 EUMP2 =    -0.76423289315771D+03
 CCSD(T)
 CCSD(T)= -0.76427429161D+03

 The electronic state is 1-SG.
 Alpha  occ. eigenvalues -- -166.92279 -19.37835 -15.80165 -15.80165 -15.79404
 Alpha  occ. eigenvalues --   -2.68783  -1.66307  -1.66307  -1.66262  -0.40590
 Alpha  occ. eigenvalues --   -0.23277
 Alpha virt. eigenvalues --    0.01086   0.01086   0.01479   0.01694   0.02592
 Alpha virt. eigenvalues --    0.02592   0.02658   0.02658   0.02694   0.03990
 Alpha virt. eigenvalues --    0.04001   0.04001   0.06822   0.06822   0.07005

 Mulliken charges and spin densities:
               1          2
     1  Sc   0.382877   0.000000
     2  H   -0.382877   0.000000
 Sum of Mulliken charges =  -0.00000   0.00000

 Dipole moment (field-independent basis, Debye):
    X=              0.0000    Y=             -0.0000    Z=              1.4193  Tot=              1.4193
 Quadrupole moment (field-independent basis, Debye-Ang):
   XX=            -23.4693   YY=            -23.4693   ZZ=            -27.4237
   XY=             -0.0000   XZ=              0.0000   YZ=              0.0000

  ROCCSD(T)=(maxcyc=150, FrzINGC)/Gen 5d 7f SCF=(maxcycles=300) Integra
 \PMP2-0=-764.2328932\MP4SDQ=-764.2556775\CCSD=-764.2564693\CCSD(T)=-76
 Normal termination of Gaussian 16 at Wed Feb 14 14:12:22 2018.
