 Gaussian 16, Revision A.03,
 Gaussian 16:  ES64L-G16RevA.03 25-Dec-2016

 ----------------------------------------------------------------------
 #P ROCCSD(T)=(maxcyc=150, Full, SaveAmplitudes, ReadAmplitudes)/Gen 5d
  7f SCF=(maxcycles=300) Integral(NoXCTest) MaxDisk=500GB Pop=Regular P
 seudo=Read Guess=Read
 ----------------------------------------------------------------------

 ---
 TiO
 ---
 Symbolic Z-matrix:
 Charge =  0 Multiplicity = 3

                         Standard orientation:
 ---------------------------------------------------------------------
 Center     Atomic      Atomic             Coordinates (Angstroms)
 Number     Number       Type             X           Y           Z
 ---------------------------------------------------------------------
      1         22           0        0.000000    0.000000    0.453333
      2          8           0        0.000000    0.000000   -1.246667
 ---------------------------------------------------------------------

 SCF Done:  E(ROHF) =  -73.4091969163     A.U. after   22 cycles
 E2 =    -0.7774179665D+00 EUMP2 =    -0.74186614882891D+02
 CCSD(T)
 CCSD(T)= -0.74216656868D+02

 Unable to determine electronic state:  an orbital has unidentified symmetry.
 Alpha  occ. eigenvalues --   -3.04218  -1.93631  -1.93631  -1.90632  -1.15466
 Alpha  occ. eigenvalues --   -0.48310  -0.45074  -0.42107  -0.42107  -0.27536
 Alpha virt. eigenvalues --   -0.00042  -0.00042   0.01126   0.02259   0.03377
 Alpha virt. eigenvalues --    0.03377   0.03647   0.03737   0.04147   0.04238
 Alpha virt. eigenvalues --    0.04238   0.04717   0.08285   0.10180   0.11409

 Mulliken charges and spin densities:
               1          2
     1  Ti   1.024957   1.973102
     2  O   -1.024957   0.026898
 Sum of Mulliken charges =  -0.00000   2.00000

 Dipole moment (field-independent basis, Debye):
    X=              0.0000    Y=              0.0000    Z=              5.1211  Tot=              5.1211
 Quadrupole moment (field-independent basis, Debye-Ang):
   XX=            -21.5191   YY=            -21.5191   ZZ=            -29.7468
   XY=              0.0000   XZ=              0.0000   YZ=              0.0000

 \\#P ROCCSD(T)=(maxcyc=150, Full, SaveAmplitudes, ReadAmplitudes)/Gen
 -0=-74.1866149\CCSD=-74.1667194\CCSD(T)=-74.2166569\RMSD=3.565e-10\PG=
 Normal termination of Gaussian 16 at Sat Mar 10 03:45:28 2018.
