 Gaussian 16, Revision A.03,
 Gaussian 16:  ES64L-G16RevA.03 25-Dec-2016

 ----------------------------------------------------------------------
 #P ROCCSD(T)=(maxcyc=150, Full, SaveAmplitudes, ReadAmplitudes)/Gen 5d
  7f SCF=(maxcycles=300) Integral(NoXCTest) MaxDisk=500GB Pop=Regular P
 seudo=Read Guess=Read IOp(5/15=2)
 ----------------------------------------------------------------------

 ---
 CrH
 ---
 Symbolic Z-matrix:
 Charge =  0 Multiplicity = 6

                         Standard orientation:
 ---------------------------------------------------------------------
 Center     Atomic      Atomic             Coordinates (Angstroms)
 Number     Number       Type             X           Y           Z
 ---------------------------------------------------------------------
      1         24           0        0.000000    0.000000    0.048000
      2          1           0        0.000000    0.000000   -1.152000
 ---------------------------------------------------------------------

 SCF Done:  E(ROHF) =  -86.7839789353     A.U. after   38 cycles
 E2 =    -0.5895842935D+00 EUMP2 =    -0.87373563228760D+02
 CCSD(T)
 CCSD(T)= -0.87394392313D+02

 The electronic state is 6-SG.
 Alpha  occ. eigenvalues --   -3.65729  -2.35360  -2.35360  -2.34317  -0.46301
 Alpha  occ. eigenvalues --   -0.45415  -0.45415  -0.42665  -0.42665  -0.25341
 Alpha virt. eigenvalues --    0.01788   0.01826   0.01826   0.02437   0.06230
 Alpha virt. eigenvalues --    0.06376   0.06376   0.07892   0.07892   0.08059
 Alpha virt. eigenvalues --    0.08131   0.08131   0.09911   0.19878   0.22423

 Mulliken charges and spin densities:
               1          2
     1  Cr   0.649481   5.017040
     2  H   -0.649481  -0.017040
 Sum of Mulliken charges =  -0.00000   5.00000

 Dipole moment (field-independent basis, Debye):
    X=              0.0000    Y=              0.0000    Z=              2.1323  Tot=              2.1323
 Quadrupole moment (field-independent basis, Debye-Ang):
   XX=            -16.5027   YY=            -16.5027   ZZ=            -18.5214
   XY=              0.0000   XZ=              0.0000   YZ=              0.0000

 \\#P ROCCSD(T)=(maxcyc=150, Full, SaveAmplitudes, ReadAmplitudes)/Gen
 64\CCSD=-87.3736941\CCSD(T)=-87.3943923\RMSD=3.772e-09\PG=C*V [C*(H1Cr
 Normal termination of Gaussian 16 at Sun Feb 25 22:05:13 2018.
