 Gaussian 16, Revision A.03,
 Gaussian 16:  ES64L-G16RevA.03 25-Dec-2016

 ----------------------------------------------------------------------
 #P ROCCSD(T)=(maxcyc=150, Full, SaveAmplitudes, ReadAmplitudes)/Gen 5d
  7f SCF=(maxcycles=300) Integral(NoXCTest) MaxDisk=500GB Pop=Regular P
 seudo=Read Guess=Read
 ----------------------------------------------------------------------

 ---
 ScO
 ---
 Symbolic Z-matrix:
 Charge =  0 Multiplicity = 2

                         Standard orientation:
 ---------------------------------------------------------------------
 Center     Atomic      Atomic             Coordinates (Angstroms)
 Number     Number       Type             X           Y           Z
 ---------------------------------------------------------------------
      1         21           0        0.000000    0.000000    0.331034
      2          8           0        0.000000    0.000000   -0.868966
 ---------------------------------------------------------------------

 SCF Done:  E(ROHF) =  -61.5188971171     A.U. after   15 cycles
 E2 =    -0.6828940403D+00 EUMP2 =    -0.62201791157388D+02
 CCSD(T)
 CCSD(T)= -0.62230123896D+02

 The electronic state is 2-SG.
 Alpha  occ. eigenvalues --   -2.61777  -1.82140  -1.52425  -1.52425  -1.03898
 Alpha  occ. eigenvalues --   -0.63923  -0.63923  -0.47742  -0.17824
 Alpha virt. eigenvalues --    0.00987   0.00987   0.01641   0.02542   0.02824
 Alpha virt. eigenvalues --    0.02824   0.02859   0.02859   0.02885   0.04340
 Alpha virt. eigenvalues --    0.04340   0.06511   0.08143   0.08143   0.08379

 Mulliken charges and spin densities:
               1          2
     1  Sc   0.823433   1.036290
     2  O   -0.823433  -0.036290
 Sum of Mulliken charges =  -0.00000   1.00000

 Dipole moment (field-independent basis, Debye):
    X=              0.0000    Y=              0.0000    Z=             -1.2458  Tot=              1.2458
 Quadrupole moment (field-independent basis, Debye-Ang):
   XX=            -23.6004   YY=            -23.6004   ZZ=            -29.0552
   XY=              0.0000   XZ=              0.0000   YZ=              0.0000

 \\#P ROCCSD(T)=(maxcyc=150, Full, SaveAmplitudes, ReadAmplitudes)/Gen
 188971\PMP2-0=-62.2017912\CCSD=-62.2013566\CCSD(T)=-62.2301239\RMSD=2.
 Normal termination of Gaussian 16 at Tue Feb 20 22:17:15 2018.
