 Gaussian 16, Revision A.03,
 Gaussian 16:  ES64L-G16RevA.03 25-Dec-2016

 ----------------------------------------------------------------------
 #P ROCCSD(T)=(MaxCyc=150, Window=(7,0))/Gen SCF=(maxcycle=400) Integra
 l(DKHSO, NoXCTest) Pop=Regular MaxDisk=500GB Guess=Read IOp(5/15=2)
 ----------------------------------------------------------------------

 ---
 CoO
 ---
 Symbolic Z-matrix:
 Charge =  0 Multiplicity = 4

                         Standard orientation:
 ---------------------------------------------------------------------
 Center     Atomic      Atomic             Coordinates (Angstroms)
 Number     Number       Type             X           Y           Z
 ---------------------------------------------------------------------
      1         27           0        0.000000    0.000000    0.411429
      2          8           0        0.000000    0.000000   -1.388571
 ---------------------------------------------------------------------

 SCF Done:  E(ROHF) =  -1466.70475222     A.U. after   26 cycles
 E2 =    -0.1046271550D+01 EUMP2 =    -0.14677510237684D+04
 CCSD(T)
 CCSD(T)= -0.14677625202D+04

 Unable to determine electronic state:  partially filled degenerate orbitals.
 Alpha  occ. eigenvalues -- -285.82850 -35.56052 -30.32815 -30.32815 -30.32500
 Alpha  occ. eigenvalues --  -20.50139  -4.79877  -3.23310  -3.23296  -3.23296
 Alpha  occ. eigenvalues --   -1.13194  -0.76736  -0.76736  -0.76351  -0.71303
 Alpha  occ. eigenvalues --   -0.69269  -0.38586  -0.38586  -0.34865
 Alpha virt. eigenvalues --   -0.05146   0.01928   0.01928   0.02127   0.04159
 Alpha virt. eigenvalues --    0.07439   0.07439   0.09887   0.10639   0.10668
 Alpha virt. eigenvalues --    0.11532   0.11532   0.14572   0.15323   0.25861

 Mulliken charges and spin densities:
               1          2
     1  Co   0.979942   2.957102
     2  O   -0.979942   0.042898
 Sum of Mulliken charges =  -0.00000   3.00000

 Dipole moment (field-independent basis, Debye):
    X=              0.0000    Y=              0.0000    Z=              7.9339  Tot=              7.9339
 Quadrupole moment (field-independent basis, Debye-Ang):
   XX=            -19.5005   YY=            -19.5005   ZZ=            -23.1504
   XY=              0.0000   XZ=              0.0000   YZ=              0.0000

 1\1\GINC-C420-103\SP\ROCCSD(T)-RW\Gen\Co1O1(4)\GWANG18\31-Mar-2018\0\\
 #P ROCCSD(T)=(MaxCyc=150, Window=(7,0))/Gen SCF=(maxcycle=400) Integra
 l(DKHSO, NoXCTest) Pop=Regular MaxDisk=500GB Guess=Read IOp(5/15=2)\\C
 oO\\0,4\Co,0,0.,0.,0.\O,0,0.,0.,1.8\\Version=ES64L-G16RevA.03\HF=-1466
 .7047522\MP2=-1467.7510238\MP3=-1467.6567202\PUHF=-1466.7047522\PMP2-0
 =-1467.7510238\MP4SDQ=-1467.7189469\CCSD=-1467.7085651\CCSD(T)=-1467.7
 625202\RMSD=4.345e-09\PG=C*V [C*(O1Co1)]\\@

 Normal termination of Gaussian 16 at Sat Mar 31 14:31:42 2018.
