 Gaussian 16, Revision A.03,
 Gaussian 16:  ES64L-G16RevA.03 25-Dec-2016

 ----------------------------------------------------------------------
 #P ROCCSD(T)=(MaxCyc=150, Window=(7,0))/Gen SCF=(maxcycle=400) Integra
 l(DKHSO, NoXCTest) Pop=Regular MaxDisk=500GB Guess=Read IOp(5/15=2)
 ----------------------------------------------------------------------

 ---
 CoO
 ---
 Symbolic Z-matrix:
 Charge =  0 Multiplicity = 4

                         Standard orientation:
 ---------------------------------------------------------------------
 Center     Atomic      Atomic             Coordinates (Angstroms)
 Number     Number       Type             X           Y           Z
 ---------------------------------------------------------------------
      1         27           0        0.000000    0.000000    0.411429
      2          8           0        0.000000    0.000000   -1.388571
 ---------------------------------------------------------------------

 SCF Done:  E(ROHF) =  -1466.71073688     A.U. after   22 cycles
 E2 =    -0.1096138690D+01 EUMP2 =    -0.14678068755670D+04
 CCSD(T)
 CCSD(T)= -0.14678160334D+04

 Unable to determine electronic state:  partially filled degenerate orbitals.
 Alpha  occ. eigenvalues -- -285.82828 -35.56015 -30.32776 -30.32776 -30.32461
 Alpha  occ. eigenvalues --  -20.49991  -4.79850  -3.23282  -3.23271  -3.23271
 Alpha  occ. eigenvalues --   -1.13133  -0.76729  -0.76729  -0.76344  -0.71299
 Alpha  occ. eigenvalues --   -0.69258  -0.38608  -0.38608  -0.34844
 Alpha virt. eigenvalues --   -0.05135   0.01651   0.01651   0.01891   0.03742
 Alpha virt. eigenvalues --    0.06555   0.06555   0.07034   0.07044   0.07115
 Alpha virt. eigenvalues --    0.08035   0.08035   0.12315   0.14332   0.20894

 Mulliken charges and spin densities:
               1          2
     1  Co   0.955713   2.957031
     2  O   -0.955713   0.042969
 Sum of Mulliken charges =  -0.00000   3.00000

 Dipole moment (field-independent basis, Debye):
    X=              0.0000    Y=              0.0000    Z=              7.9196  Tot=              7.9196
 Quadrupole moment (field-independent basis, Debye-Ang):
   XX=            -19.4947   YY=            -19.4947   ZZ=            -23.1324
   XY=             -0.0000   XZ=              0.0000   YZ=              0.0000

 1\1\GINC-C420-103\SP\ROCCSD(T)-RW\Gen\Co1O1(4)\GWANG18\31-Mar-2018\0\\
 #P ROCCSD(T)=(MaxCyc=150, Window=(7,0))/Gen SCF=(maxcycle=400) Integra
 l(DKHSO, NoXCTest) Pop=Regular MaxDisk=500GB Guess=Read IOp(5/15=2)\\C
 oO\\0,4\Co,0,0.,0.,0.\O,0,0.,0.,1.8\\Version=ES64L-G16RevA.03\HF=-1466
 .7107369\MP2=-1467.8068756\MP3=-1467.7096703\PUHF=-1466.7107369\PMP2-0
 =-1467.8068756\MP4SDQ=-1467.7693463\CCSD=-1467.7598759\CCSD(T)=-1467.8
 160334\RMSD=1.662e-09\PG=C*V [C*(O1Co1)]\\@

 Normal termination of Gaussian 16 at Sat Mar 31 22:07:22 2018.
