 Gaussian 16, Revision A.03,
 Gaussian 16:  ES64L-G16RevA.03 25-Dec-2016

 ----------------------------------------------------------------------
 #P ROCCSD(T)=(maxcyc=150, Full, SaveAmplitudes, ReadAmplitudes)/Gen 5d
  7f SCF=(maxcycles=300) Integral(NoXCTest) MaxDisk=500GB Pop=Regular P
 seudo=Read Guess=Read IOp(5/15=2)
 ----------------------------------------------------------------------

 ---
 ScO
 ---
 Symbolic Z-matrix:
 Charge =  0 Multiplicity = 2

                         Standard orientation:
 ---------------------------------------------------------------------
 Center     Atomic      Atomic             Coordinates (Angstroms)
 Number     Number       Type             X           Y           Z
 ---------------------------------------------------------------------
      1         21           0        0.000000    0.000000    0.413793
      2          8           0        0.000000    0.000000   -1.086207
 ---------------------------------------------------------------------

 SCF Done:  E(ROHF) =  -61.9434946791     A.U. after   16 cycles
 E2 =    -0.6769492891D+00 EUMP2 =    -0.62620443968218D+02
 CCSD(T)
 CCSD(T)= -0.62647907381D+02

 The electronic state is 2-SG.
 Alpha  occ. eigenvalues --   -2.61088  -1.68468  -1.57980  -1.57980  -1.11571
 Alpha  occ. eigenvalues --   -0.47948  -0.47948  -0.45027  -0.22559
 Alpha virt. eigenvalues --    0.00611   0.00611   0.01953   0.02285   0.03705
 Alpha virt. eigenvalues --    0.03705   0.03849   0.03849   0.04118   0.04327
 Alpha virt. eigenvalues --    0.04327   0.06614   0.09782   0.09782   0.10885

 Mulliken charges and spin densities:
               1          2
     1  Sc   1.285934   0.978539
     2  O   -1.285934   0.021461
 Sum of Mulliken charges =  -0.00000   1.00000

 Dipole moment (field-independent basis, Debye):
    X=              0.0000    Y=              0.0000    Z=              2.7532  Tot=              2.7532
 Quadrupole moment (field-independent basis, Debye-Ang):
   XX=            -22.0091   YY=            -22.0091   ZZ=            -31.0135
   XY=              0.0000   XZ=              0.0000   YZ=              0.0000

 \\#P ROCCSD(T)=(maxcyc=150, Full, SaveAmplitudes, ReadAmplitudes)/Gen
 CCSD=-62.6127134\CCSD(T)=-62.6479074\RMSD=3.552e-09\PG=C*V [C*(O1Sc1)]
 Normal termination of Gaussian 16 at Mon Mar  5 18:23:12 2018.
