 Gaussian 16, Revision A.03,
 Gaussian 16:  ES64L-G16RevA.03 25-Dec-2016

 ----------------------------------------------------------------------
 #P ROCCSD(T)=(maxcyc=150, Full)/Gen 5d 7f SCF=(maxcycles=300) Integral
 (NoXCTest) MaxDisk=500GB Pop=Regular Pseudo=Read
 ----------------------------------------------------------------------

 ---
 MnH
 ---
 Symbolic Z-matrix:
 Charge =  0 Multiplicity = 7

                         Standard orientation:
 ---------------------------------------------------------------------
 Center     Atomic      Atomic             Coordinates (Angstroms)
 Number     Number       Type             X           Y           Z
 ---------------------------------------------------------------------
      1         25           0        0.000000    0.000000    0.084615
      2          1           0        0.000000    0.000000   -2.115385
 ---------------------------------------------------------------------

 SCF Done:  E(ROHF) =  -104.043612265     A.U. after   24 cycles
 E2 =    -0.5611820789D+00 EUMP2 =    -0.10460479434439D+03
 CCSD(T)
 CCSD(T)= -0.10463147271D+03

 The electronic state is 7-SG.
 Alpha  occ. eigenvalues --   -4.18724  -2.83476  -2.83476  -2.83201  -0.66782
 Alpha  occ. eigenvalues --   -0.66782  -0.66156  -0.66156  -0.66015  -0.37415
 Alpha  occ. eigenvalues --   -0.27429
 Alpha virt. eigenvalues --    0.00774   0.00774   0.02175   0.03200   0.05311
 Alpha virt. eigenvalues --    0.05311   0.07632   0.08291   0.08291   0.08813
 Alpha virt. eigenvalues --    0.08813   0.10678   0.12826   0.17085   0.22031

 Mulliken charges and spin densities:
               1          2
     1  Mn   0.443026   5.949070
     2  H   -0.443026   0.050930
 Sum of Mulliken charges =  -0.00000   6.00000

 Dipole moment (field-independent basis, Debye):
    X=              0.0000    Y=              0.0000    Z=              3.2029  Tot=              3.2029
 Quadrupole moment (field-independent basis, Debye-Ang):
   XX=            -16.6746   YY=            -16.6746   ZZ=            -29.5249
   XY=              0.0000   XZ=              0.0000   YZ=              0.0000

 \\#P ROCCSD(T)=(maxcyc=150, Full)/Gen 5d 7f SCF=(maxcycles=300) Integr
 943\MP4SDQ=-104.6138845\CCSD=-104.6159902\CCSD(T)=-104.6314727\RMSD=5.
 Normal termination of Gaussian 16 at Tue Feb 13 17:58:23 2018.
