 Gaussian 16, Revision A.03,
 Gaussian 16:  ES64L-G16RevA.03 25-Dec-2016

 ----------------------------------------------------------------------
 #P ROCCSD(T)=(MaxCyc=150, FrzINGC)/Gen SCF=(maxcycle=400, vshift=200)
 Integral(DKHSO, NoXCTest) Pop=Regular MaxDisk=500GB Guess=Read IOp(5/1
 5=2)
 ----------------------------------------------------------------------

 ---
 CuH
 ---
 Symbolic Z-matrix:
 Charge =  0 Multiplicity = 1

                         Standard orientation:
 ---------------------------------------------------------------------
 Center     Atomic      Atomic             Coordinates (Angstroms)
 Number     Number       Type             X           Y           Z
 ---------------------------------------------------------------------
      1         29           0        0.000000    0.000000    0.056667
      2          1           0        0.000000    0.000000   -1.643333
 ---------------------------------------------------------------------

 SCF Done:  E(ROHF) =  -1653.71225149     A.U. after   11 cycles
 E2 =    -0.1124969662D+01 EUMP2 =    -0.16548372211555D+04
 CCSD(T)
 CCSD(T)= -0.16547437759D+04

 The electronic state is 1-SG.
 Alpha  occ. eigenvalues -- -332.50486 -41.67686 -35.81763 -35.81763 -35.81567
 Alpha  occ. eigenvalues --   -5.17197  -3.37888  -3.37760  -3.37760  -0.49702
 Alpha  occ. eigenvalues --   -0.49702  -0.49618  -0.49618  -0.49589  -0.33322
 Alpha virt. eigenvalues --   -0.00262   0.02587   0.02587   0.03398   0.04623
 Alpha virt. eigenvalues --    0.08850   0.08861   0.08861   0.13387   0.13524
 Alpha virt. eigenvalues --    0.13524   0.13752   0.13752   0.19363   0.21872

 Mulliken charges and spin densities:
               1          2
     1  Cu   0.357785   0.000000
     2  H   -0.357785   0.000000
 Sum of Mulliken charges =  -0.00000   0.00000

 Dipole moment (field-independent basis, Debye):
    X=              0.0000    Y=             -0.0000    Z=              4.3698  Tot=              4.3698
 Quadrupole moment (field-independent basis, Debye-Ang):
   XX=            -13.8577   YY=            -13.8577   ZZ=            -17.4434
   XY=              0.0000   XZ=              0.0000   YZ=              0.0000

  ROCCSD(T)=(MaxCyc=150, FrzINGC)/Gen SCF=(maxcycle=400, vshift=200) In
 \CCSD(T)=-1654.7437759\RMSD=6.630e-09\PG=C*V [C*(H1Cu1)]\\@
 Normal termination of Gaussian 16 at Wed Apr  4 20:25:19 2018.
