 Gaussian 16, Revision A.03,
 Gaussian 16:  ES64L-G16RevA.03 25-Dec-2016

 ----------------------------------------------------------------------
 #P ROCCSD(T)=(MaxCyc=150, FrzINGC)/Gen SCF=(maxcycle=400, vshift=200)
 Integral(DKHSO, NoXCTest) Pop=Regular MaxDisk=500GB Guess=Read
 ----------------------------------------------------------------------

 ---
 CuH
 ---
 Symbolic Z-matrix:
 Charge =  0 Multiplicity = 1

                         Standard orientation:
 ---------------------------------------------------------------------
 Center     Atomic      Atomic             Coordinates (Angstroms)
 Number     Number       Type             X           Y           Z
 ---------------------------------------------------------------------
      1         29           0        0.000000    0.000000    0.056667
      2          1           0        0.000000    0.000000   -1.643333
 ---------------------------------------------------------------------

 SCF Done:  E(ROHF) =  -1653.71251641     A.U. after   17 cycles
 E2 =    -0.1149573670D+01 EUMP2 =    -0.16548620900768D+04
 CCSD(T)
 CCSD(T)= -0.16547665818D+04

 The electronic state is 1-SG.
 Alpha  occ. eigenvalues -- -332.50495 -41.67689 -35.81765 -35.81765 -35.81569
 Alpha  occ. eigenvalues --   -5.17198  -3.37889  -3.37761  -3.37761  -0.49704
 Alpha  occ. eigenvalues --   -0.49704  -0.49620  -0.49620  -0.49591  -0.33323
 Alpha virt. eigenvalues --   -0.00308   0.02504   0.02504   0.03110   0.03909
 Alpha virt. eigenvalues --    0.07651   0.08497   0.08497   0.12161   0.12161
 Alpha virt. eigenvalues --    0.12200   0.12352   0.12352   0.14767   0.18439

 Mulliken charges and spin densities:
               1          2
     1  Cu   0.322124   0.000000
     2  H   -0.322124   0.000000
 Sum of Mulliken charges =  -0.00000   0.00000

 Dipole moment (field-independent basis, Debye):
    X=             -0.0000    Y=             -0.0000    Z=              4.3683  Tot=              4.3683
 Quadrupole moment (field-independent basis, Debye-Ang):
   XX=            -13.8560   YY=            -13.8560   ZZ=            -17.4465
   XY=              0.0000   XZ=             -0.0000   YZ=              0.0000

  ROCCSD(T)=(MaxCyc=150, FrzINGC)/Gen SCF=(maxcycle=400, vshift=200) In
 P2-0=-1654.8620901\MP4SDQ=-1654.8077177\CCSD=-1654.728256\CCSD(T)=-165
 Normal termination of Gaussian 16 at Thu Apr  5 09:28:39 2018.
