 Gaussian 16, Revision A.03,
 Gaussian 16:  ES64L-G16RevA.03 25-Dec-2016

 ----------------------------------------------------------------------
 #P ROCCSD(T)=(maxcyc=150, Full, SaveAmplitudes, ReadAmplitudes)/Gen 5d
  7f SCF=(maxcycles=300) Integral(NoXCTest) MaxDisk=500GB Pop=Regular P
 seudo=Read Guess=Read IOp(5/15=2)
 ----------------------------------------------------------------------

 ---
 MnO
 ---
 Symbolic Z-matrix:
 Charge =  0 Multiplicity = 6

                         Standard orientation:
 ---------------------------------------------------------------------
 Center     Atomic      Atomic             Coordinates (Angstroms)
 Number     Number       Type             X           Y           Z
 ---------------------------------------------------------------------
      1         25           0        0.000000    0.000000    0.412121
      2          8           0        0.000000    0.000000   -1.287879
 ---------------------------------------------------------------------

 SCF Done:  E(ROHF) =  -119.186228080     A.U. after   31 cycles
 E2 =    -0.8924565719D+00 EUMP2 =    -0.12007868465156D+03
 CCSD(T)
 CCSD(T)= -0.12010976727D+03

 The electronic state is 6-SG.
 Alpha  occ. eigenvalues --   -4.15757  -2.79915  -2.79915  -2.79287  -1.12069
 Alpha  occ. eigenvalues --   -0.64416  -0.64416  -0.63641  -0.63641  -0.59528
 Alpha  occ. eigenvalues --   -0.33926  -0.33901  -0.33901
 Alpha virt. eigenvalues --   -0.04616   0.01575   0.01575   0.01838   0.03845
 Alpha virt. eigenvalues --    0.06684   0.06684   0.08211   0.08444   0.08444
 Alpha virt. eigenvalues --    0.09603   0.09603   0.13183   0.14043   0.22986

 Mulliken charges and spin densities:
               1          2
     1  Mn   1.149894   4.893468
     2  O   -1.149894   0.106532
 Sum of Mulliken charges =  -0.00000   5.00000

 Dipole moment (field-independent basis, Debye):
    X=              0.0000    Y=              0.0000    Z=              9.1081  Tot=              9.1081
 Quadrupole moment (field-independent basis, Debye-Ang):
   XX=            -18.8602   YY=            -18.8602   ZZ=            -23.8216
   XY=              0.0000   XZ=              0.0000   YZ=              0.0000

 \\#P ROCCSD(T)=(maxcyc=150, Full, SaveAmplitudes, ReadAmplitudes)/Gen
 .0772421\CCSD=-120.0685908\CCSD(T)=-120.1097673\RMSD=9.163e-09\PG=C*V
 Normal termination of Gaussian 16 at Sat Mar 10 08:00:30 2018.
