 Gaussian 16, Revision A.03,
 Gaussian 16:  ES64L-G16RevA.03 25-Dec-2016

 ----------------------------------------------------------------------
 #P ROCCSD(T)=(maxcyc=150, Full, SaveAmplitudes, ReadAmplitudes)/Gen 5d
  7f SCF=(maxcycles=300) Integral(NoXCTest) MaxDisk=500GB Pop=Regular P
 seudo=Read Guess=Read IOp(5/15=2)
 ----------------------------------------------------------------------

 ---
 ScO
 ---
 Symbolic Z-matrix:
 Charge =  0 Multiplicity = 2

                         Standard orientation:
 ---------------------------------------------------------------------
 Center     Atomic      Atomic             Coordinates (Angstroms)
 Number     Number       Type             X           Y           Z
 ---------------------------------------------------------------------
      1         21           0        0.000000    0.000000    0.358621
      2          8           0        0.000000    0.000000   -0.941379
 ---------------------------------------------------------------------

 SCF Done:  E(ROHF) =  -61.9013879394     A.U. after   18 cycles
 E2 =    -0.6729684243D+00 EUMP2 =    -0.62574356363689D+02
 CCSD(T)
 CCSD(T)= -0.62602494169D+02

 The electronic state is 2-SG.
 Alpha  occ. eigenvalues --   -2.63455  -1.75201  -1.52109  -1.52109  -1.05619
 Alpha  occ. eigenvalues --   -0.57677  -0.57677  -0.46846  -0.19478
 Alpha virt. eigenvalues --    0.00986   0.00986   0.02040   0.02502   0.03782
 Alpha virt. eigenvalues --    0.03782   0.03798   0.03798   0.03904   0.04775
 Alpha virt. eigenvalues --    0.04775   0.07345   0.10870   0.10870   0.11028

 Mulliken charges and spin densities:
               1          2
     1  Sc   1.192007   1.006131
     2  O   -1.192007  -0.006131
 Sum of Mulliken charges =  -0.00000   1.00000

 Dipole moment (field-independent basis, Debye):
    X=              0.0000    Y=              0.0000    Z=              0.1928  Tot=              0.1928
 Quadrupole moment (field-independent basis, Debye-Ang):
   XX=            -22.7118   YY=            -22.7118   ZZ=            -29.6049
   XY=              0.0000   XZ=              0.0000   YZ=              0.0000

 \\#P ROCCSD(T)=(maxcyc=150, Full, SaveAmplitudes, ReadAmplitudes)/Gen
 81\CCSD=-62.5723547\CCSD(T)=-62.6024942\RMSD=5.476e-09\PG=C*V [C*(O1Sc
 Normal termination of Gaussian 16 at Wed Feb 28 18:57:08 2018.
