 Gaussian 16, Revision A.03,
 Gaussian 16:  ES64L-G16RevA.03 25-Dec-2016

 ----------------------------------------------------------------------
 #P ROCCSD(T)=(maxcyc=150, FrzINGC)/Gen 5d 7f SCF=(maxcycles=300) Integ
 ral(NoXCTest, DKHSO) MaxDisk=500GB Pop=Regular IOp(5/15=2) Guess=Read
 ----------------------------------------------------------------------

 ---
 ScH
 ---
 Symbolic Z-matrix:
 Charge =  0 Multiplicity = 1

                         Standard orientation:
 ---------------------------------------------------------------------
 Center     Atomic      Atomic             Coordinates (Angstroms)
 Number     Number       Type             X           Y           Z
 ---------------------------------------------------------------------
      1         21           0        0.000000    0.000000    0.045455
      2          1           0        0.000000    0.000000   -0.954545
 ---------------------------------------------------------------------

 SCF Done:  E(ROHF) =  -763.554550208     A.U. after   14 cycles
 E2 =    -0.4172140556D+00 EUMP2 =    -0.76397176426382D+03
 CCSD(T)
 CCSD(T)= -0.76400439787D+03

 The electronic state is 1-SG.
 Alpha  occ. eigenvalues -- -166.79748 -19.22879 -15.65411 -15.65411 -15.64773
 Alpha  occ. eigenvalues --   -2.59928  -1.66018  -1.55987  -1.55987  -0.47582
 Alpha  occ. eigenvalues --   -0.21296
 Alpha virt. eigenvalues --    0.01202   0.01338   0.01338   0.01710   0.02605
 Alpha virt. eigenvalues --    0.02605   0.02617   0.02643   0.02643   0.04022
 Alpha virt. eigenvalues --    0.04446   0.04446   0.07194   0.07431   0.07431

 Mulliken charges and spin densities:
               1          2
     1  Sc   0.109063   0.000000
     2  H   -0.109063   0.000000
 Sum of Mulliken charges =  -0.00000   0.00000

 Dipole moment (field-independent basis, Debye):
    X=              0.0000    Y=              0.0000    Z=              1.2208  Tot=              1.2208
 Quadrupole moment (field-independent basis, Debye-Ang):
   XX=            -23.9460   YY=            -23.9460   ZZ=            -22.5106
   XY=             -0.0000   XZ=              0.0000   YZ=             -0.0000

  ROCCSD(T)=(maxcyc=150, FrzINGC)/Gen 5d 7f SCF=(maxcycles=300) Integra
 PMP2-0=-763.9717643\MP4SDQ=-763.9877532\CCSD=-763.9878143\CCSD(T)=-764
 Normal termination of Gaussian 16 at Wed Feb 14 12:36:49 2018.
