 Gaussian 16, Revision A.03,
 Gaussian 16:  ES64L-G16RevA.03 25-Dec-2016

 ----------------------------------------------------------------------
 #P ROCCSD(T)=(maxcyc=150, Full)/Gen 5d 7f SCF=(maxcycles=300) Integral
 (NoXCTest) MaxDisk=500GB Pop=Regular Pseudo=Read
 ----------------------------------------------------------------------

 ---
 MnH
 ---
 Symbolic Z-matrix:
 Charge =  0 Multiplicity = 7

                         Standard orientation:
 ---------------------------------------------------------------------
 Center     Atomic      Atomic             Coordinates (Angstroms)
 Number     Number       Type             X           Y           Z
 ---------------------------------------------------------------------
      1         25           0        0.000000    0.000000    0.073077
      2          1           0        0.000000    0.000000   -1.826923
 ---------------------------------------------------------------------

 SCF Done:  E(ROHF) =  -104.059505165     A.U. after   23 cycles
 E2 =    -0.5643150484D+00 EUMP2 =    -0.10462382021361D+03
 CCSD(T)
 CCSD(T)= -0.10464777708D+03

 The electronic state is 7-SG.
 Alpha  occ. eigenvalues --   -4.17182  -2.81931  -2.81931  -2.81658  -0.65320
 Alpha  occ. eigenvalues --   -0.65320  -0.64673  -0.64614  -0.64614  -0.39436
 Alpha  occ. eigenvalues --   -0.26791
 Alpha virt. eigenvalues --    0.01087   0.01087   0.02328   0.03120   0.05567
 Alpha virt. eigenvalues --    0.05567   0.08092   0.08415   0.08415   0.08903
 Alpha virt. eigenvalues --    0.08903   0.10161   0.13546   0.18689   0.22430

 Mulliken charges and spin densities:
               1          2
     1  Mn   0.427898   5.957423
     2  H   -0.427898   0.042577
 Sum of Mulliken charges =  -0.00000   6.00000

 Dipole moment (field-independent basis, Debye):
    X=              0.0000    Y=              0.0000    Z=              2.0254  Tot=              2.0254
 Quadrupole moment (field-independent basis, Debye-Ang):
   XX=            -16.3599   YY=            -16.3599   ZZ=            -27.3830
   XY=              0.0000   XZ=              0.0000   YZ=              0.0000

 \\#P ROCCSD(T)=(maxcyc=150, Full)/Gen 5d 7f SCF=(maxcycles=300) Integr
 202\MP4SDQ=-104.6314256\CCSD=-104.6325405\CCSD(T)=-104.6477771\RMSD=8.
 Normal termination of Gaussian 16 at Tue Feb 13 11:24:25 2018.
