 Gaussian 16, Revision A.03,
 Gaussian 16:  ES64L-G16RevA.03 25-Dec-2016

 ----------------------------------------------------------------------
 #P ROCCSD(T)=(maxcyc=150, Full)/Gen 5d 7f SCF=(maxcycles=300) Integral
 (NoXCTest, DKHSO) MaxDisk=500GB Pop=Regular IOp(5/15=2) Guess=Read
 ----------------------------------------------------------------------

 ---
 MnH
 ---
 Symbolic Z-matrix:
 Charge =  0 Multiplicity = 7

                         Standard orientation:
 ---------------------------------------------------------------------
 Center     Atomic      Atomic             Coordinates (Angstroms)
 Number     Number       Type             X           Y           Z
 ---------------------------------------------------------------------
      1         25           0        0.000000    0.000000    0.038462
      2          1           0        0.000000    0.000000   -0.961538
 ---------------------------------------------------------------------

 SCF Done:  E(ROHF) =  -1157.65510266     A.U. after   22 cycles
 E2 =    -0.1053697471D+01 EUMP2 =    -0.11587088001356D+04
 CCSD(T)
 CCSD(T)= -0.11587067325D+04

 The electronic state is 7-SG.
 Alpha  occ. eigenvalues -- -242.49286 -29.59452 -24.94882 -24.94882 -24.94567
 Alpha  occ. eigenvalues --   -4.09009  -2.75946  -2.73286  -2.73286  -0.71408
 Alpha  occ. eigenvalues --   -0.64023  -0.64023  -0.62875  -0.62875  -0.39082
 Alpha  occ. eigenvalues --   -0.21403
 Alpha virt. eigenvalues --    0.01145   0.01145   0.01718   0.03365   0.04962
 Alpha virt. eigenvalues --    0.04962   0.05808   0.05808   0.05817   0.06047
 Alpha virt. eigenvalues --    0.06047   0.07729   0.14147   0.16475   0.17505

 Mulliken charges and spin densities:
               1          2
     1  Mn   0.501908   5.753750
     2  H   -0.501908   0.246250
 Sum of Mulliken charges =  -0.00000   6.00000

 Dipole moment (field-independent basis, Debye):
    X=              0.0000    Y=              0.0000    Z=             -1.2698  Tot=              1.2698
 Quadrupole moment (field-independent basis, Debye-Ang):
   XX=            -16.4971   YY=            -16.4971   ZZ=            -26.1764
   XY=              0.0000   XZ=              0.0000   YZ=              0.0000

 \\#P ROCCSD(T)=(maxcyc=150, Full)/Gen 5d 7f SCF=(maxcycles=300) Integr
 Normal termination of Gaussian 16 at Wed Feb 14 23:08:31 2018.
