 Gaussian 16, Revision A.03,
 Gaussian 16:  ES64L-G16RevA.03 25-Dec-2016

 ----------------------------------------------------------------------
 #P ROCCSD(T)=(maxcyc=150, Full)/Gen 5d 7f SCF=(maxcycles=300) Integral
 (NoXCTest) MaxDisk=500GB Pop=Regular Pseudo=Read
 ----------------------------------------------------------------------

 ---
 CrH
 ---
 Symbolic Z-matrix:
 Charge =  0 Multiplicity = 6

                         Standard orientation:
 ---------------------------------------------------------------------
 Center     Atomic      Atomic             Coordinates (Angstroms)
 Number     Number       Type             X           Y           Z
 ---------------------------------------------------------------------
      1         24           0        0.000000    0.000000    0.084000
      2          1           0        0.000000    0.000000   -2.016000
 ---------------------------------------------------------------------

 SCF Done:  E(ROHF) =  -86.6781004894     A.U. after   35 cycles
 E2 =    -0.5167648484D+00 EUMP2 =    -0.87194865337725D+02
 CCSD(T)
 CCSD(T)= -0.87211006598D+02

 The electronic state is 6-SG.
 Alpha  occ. eigenvalues --   -3.76295  -2.51785  -2.51785  -2.46758  -0.58791
 Alpha  occ. eigenvalues --   -0.58791  -0.55222  -0.55222  -0.36945  -0.27038
 Alpha virt. eigenvalues --    0.00907   0.00907   0.02134   0.02673   0.05138
 Alpha virt. eigenvalues --    0.05138   0.05167   0.07446   0.07446   0.07950
 Alpha virt. eigenvalues --    0.07950   0.08998   0.10532   0.16412   0.20290

 Mulliken charges and spin densities:
               1          2
     1  Cr   0.370909   4.975753
     2  H   -0.370909   0.024247
 Sum of Mulliken charges =  -0.00000   5.00000

 Dipole moment (field-independent basis, Debye):
    X=              0.0000    Y=              0.0000    Z=              3.2853  Tot=              3.2853
 Quadrupole moment (field-independent basis, Debye-Ang):
   XX=            -17.3509   YY=            -17.3509   ZZ=            -27.8697
   XY=              0.0000   XZ=              0.0000   YZ=              0.0000

 \\#P ROCCSD(T)=(maxcyc=150, Full)/Gen 5d 7f SCF=(maxcycles=300) Integr
 P4SDQ=-87.2122534\CCSD=-87.199094\CCSD(T)=-87.2110066\RMSD=5.206e-09\P
 Normal termination of Gaussian 16 at Tue Feb 13 16:10:19 2018.
