 Gaussian 16, Revision A.03,
 Gaussian 16:  ES64L-G16RevA.03 25-Dec-2016

 ----------------------------------------------------------------------
 #P ROCCSD(T)=(maxcyc=150, Full, SaveAmplitudes, ReadAmplitudes)/Gen 5d
  7f SCF=(maxcycles=300) Integral(NoXCTest) MaxDisk=500GB Pop=Regular P
 seudo=Read Guess=Read IOp(5/15=2)
 ----------------------------------------------------------------------

 ---
 ScO
 ---
 Symbolic Z-matrix:
 Charge =  0 Multiplicity = 2

                         Standard orientation:
 ---------------------------------------------------------------------
 Center     Atomic      Atomic             Coordinates (Angstroms)
 Number     Number       Type             X           Y           Z
 ---------------------------------------------------------------------
      1         21           0        0.000000    0.000000    0.441379
      2          8           0        0.000000    0.000000   -1.158621
 ---------------------------------------------------------------------

 SCF Done:  E(ROHF) =  -62.0658774154     A.U. after   16 cycles
 E2 =    -0.6787806500D+00 EUMP2 =    -0.62744658065411D+02
 CCSD(T)
 CCSD(T)= -0.62773007625D+02

 The electronic state is 2-SG.
 Alpha  occ. eigenvalues --   -2.66984  -1.66921  -1.60977  -1.60977  -1.12560
 Alpha  occ. eigenvalues --   -0.44071  -0.44071  -0.43826  -0.24111
 Alpha virt. eigenvalues --    0.00326   0.00326   0.01667   0.02300   0.03652
 Alpha virt. eigenvalues --    0.03652   0.03760   0.03760   0.04198   0.04198
 Alpha virt. eigenvalues --    0.04268   0.06021   0.09042   0.09042   0.10692

 Mulliken charges and spin densities:
               1          2
     1  Sc   1.275421   0.974871
     2  O   -1.275421   0.025129
 Sum of Mulliken charges =  -0.00000   1.00000

 Dipole moment (field-independent basis, Debye):
    X=              0.0000    Y=              0.0000    Z=              3.9398  Tot=              3.9398
 Quadrupole moment (field-independent basis, Debye-Ang):
   XX=            -21.8220   YY=            -21.8220   ZZ=            -31.5871
   XY=              0.0000   XZ=              0.0000   YZ=              0.0000

 \\#P ROCCSD(T)=(maxcyc=150, Full, SaveAmplitudes, ReadAmplitudes)/Gen
 03\CCSD=-62.7353645\CCSD(T)=-62.7730076\RMSD=7.021e-09\PG=C*V [C*(O1Sc
 Normal termination of Gaussian 16 at Tue Feb 27 13:07:07 2018.
