 Gaussian 16, Revision A.03,
 Gaussian 16:  ES64L-G16RevA.03 25-Dec-2016

 ----------------------------------------------------------------------
 #P ROCCSD(T)=(maxcyc=150, Full)/Gen 5d 7f SCF=(maxcycles=300) Integral
 (NoXCTest) MaxDisk=500GB Pop=Regular Pseudo=Read IOp(5/15=2) Guess=Rea
 d
 ----------------------------------------------------------------------

 ---
 ScH
 ---
 Symbolic Z-matrix:
 Charge =  0 Multiplicity = 1

                         Standard orientation:
 ---------------------------------------------------------------------
 Center     Atomic      Atomic             Coordinates (Angstroms)
 Number     Number       Type             X           Y           Z
 ---------------------------------------------------------------------
      1         21           0        0.000000    0.000000    0.072727
      2          1           0        0.000000    0.000000   -1.527273
 ---------------------------------------------------------------------

 SCF Done:  E(ROHF) =  -46.7907049922     A.U. after   11 cycles
 E2 =    -0.4245160243D+00 EUMP2 =    -0.47215221016456D+02
 CCSD(T)
 CCSD(T)= -0.47256544167D+02

 The electronic state is 1-SG.
 Alpha  occ. eigenvalues --   -2.70910  -1.64931  -1.64448  -1.64448  -0.42971
 Alpha  occ. eigenvalues --   -0.22683
 Alpha virt. eigenvalues --    0.01218   0.01218   0.01576   0.01900   0.02870
 Alpha virt. eigenvalues --    0.02870   0.02911   0.02911   0.02926   0.04248
 Alpha virt. eigenvalues --    0.04248   0.04453   0.07744   0.07744   0.07887

 Mulliken charges and spin densities:
               1          2
     1  Sc   0.270430   0.000000
     2  H   -0.270430   0.000000
 Sum of Mulliken charges =  -0.00000   0.00000

 Dipole moment (field-independent basis, Debye):
    X=              0.0000    Y=              0.0000    Z=              0.9630  Tot=              0.9630
 Quadrupole moment (field-independent basis, Debye-Ang):
   XX=            -23.0650   YY=            -23.0650   ZZ=            -25.1924
   XY=              0.0000   XZ=              0.0000   YZ=              0.0000

 P ROCCSD(T)=(maxcyc=150, Full)/Gen 5d 7f SCF=(maxcycles=300) Integral(
 2-0=-47.215221\MP4SDQ=-47.2379489\CCSD=-47.2376543\CCSD(T)=-47.2565442
 Normal termination of Gaussian 16 at Wed Feb 14 02:08:46 2018.
