 Gaussian 16, Revision A.03,
 Gaussian 16:  ES64L-G16RevA.03 25-Dec-2016

 ----------------------------------------------------------------------
 #P ROHF/Gen 5d 7f SCF=(maxcycles=300, NoVarAcc, VShift=300) MaxDisk=10
 0GB Pop=Regular Pseudo=Read Guess=(Read,Permute) IOp(5/15=2)
 ----------------------------------------------------------------------

 --
 Ti
 --
 Symbolic Z-matrix:
 Charge =  0 Multiplicity = 3

                         Standard orientation:
 ---------------------------------------------------------------------
 Center     Atomic      Atomic             Coordinates (Angstroms)
 Number     Number       Type             X           Y           Z
 ---------------------------------------------------------------------
      1         22           0        0.000000    0.000000    0.000000
 ---------------------------------------------------------------------

 SCF Done:  E(ROHF) =  -57.6039183197     A.U. after   20 cycles

 Unable to determine electronic state:  an orbital has unidentified symmetry.
 Alpha  occ. eigenvalues --   -2.91754  -1.78854  -1.78854  -1.76592  -0.21990
 Alpha  occ. eigenvalues --   -0.05347  -0.05347
 Alpha virt. eigenvalues --    0.01467   0.01467   0.01598   0.02416   0.05287
 Alpha virt. eigenvalues --    0.05287   0.05345   0.05434   0.05434   0.05490
 Alpha virt. eigenvalues --    0.05490   0.05657   0.11982   0.11982   0.12413

 Mulliken charges and spin densities:
               1          2
     1  Ti   0.000000   2.000000
 Sum of Mulliken charges =   0.00000   2.00000

 Dipole moment (field-independent basis, Debye):
    X=              0.0000    Y=              0.0000    Z=              0.0000  Tot=              0.0000
 Quadrupole moment (field-independent basis, Debye-Ang):
   XX=            -22.0920   YY=            -21.8552   ZZ=            -21.8552
   XY=             -0.0000   XZ=              0.0000   YZ=             -0.0000

 Normal termination of Gaussian 16 at Mon Mar 12 12:22:25 2018.
