 Gaussian 16, Revision A.03,
 Gaussian 16:  ES64L-G16RevA.03 25-Dec-2016

 ----------------------------------------------------------------------
 #P ROCCSD(T)=(maxcyc=150, Full)/Gen 5d 7f SCF=(maxcycles=300, NoVarAcc
 , VShift=100) MaxDisk=100GB Pop=Regular Pseudo=Read Guess=Read
 ----------------------------------------------------------------------

 --
 Ti
 --
 Symbolic Z-matrix:
 Charge =  0 Multiplicity = 3

                         Standard orientation:
 ---------------------------------------------------------------------
 Center     Atomic      Atomic             Coordinates (Angstroms)
 Number     Number       Type             X           Y           Z
 ---------------------------------------------------------------------
      1         22           0        0.000000    0.000000    0.000000
 ---------------------------------------------------------------------

 SCF Done:  E(ROHF) =  -57.6152439507     A.U. after   17 cycles
 E2 =    -0.4124502408D+00 EUMP2 =    -0.58027694191464D+02
 CCSD(T)
 CCSD(T)= -0.58065220270D+02

 Unable to determine electronic state:  an orbital has unidentified symmetry.
 Alpha  occ. eigenvalues --   -3.00523  -1.89083  -1.89083  -1.89083  -0.43952
 Alpha  occ. eigenvalues --   -0.43952  -0.23012
 Alpha virt. eigenvalues --    0.01446   0.01446   0.01446   0.02394   0.05304
 Alpha virt. eigenvalues --    0.05304   0.05304   0.05379   0.05379   0.05379
 Alpha virt. eigenvalues --    0.05462   0.05462   0.12303   0.12303   0.12303

 Mulliken charges and spin densities:
               1          2
     1  Ti  -0.000000   2.000000
 Sum of Mulliken charges =  -0.00000   2.00000

 Dipole moment (field-independent basis, Debye):
    X=             -0.0000    Y=              0.0000    Z=              0.0000  Tot=              0.0000
 Quadrupole moment (field-independent basis, Debye-Ang):
   XX=            -21.9411   YY=            -21.9411   ZZ=            -21.9411
   XY=             -0.0000   XZ=              0.0000   YZ=             -0.0000

 1\1\GINC-C401-061\SP\ROCCSD(T)-Full\Gen\Ti1(3)\AANNABE\13-Mar-2018\0\\
 #P ROCCSD(T)=(maxcyc=150, Full)/Gen 5d 7f SCF=(maxcycles=300, NoVarAcc
 , VShift=100) MaxDisk=100GB Pop=Regular Pseudo=Read Guess=Read\\Ti\\0,
 3\Ti,0,0.,0.,0.\\Version=ES64L-G16RevA.03\HF=-57.615244\MP2=-58.027694
 2\MP3=-58.0490624\PUHF=-57.615244\PMP2-0=-58.0276942\MP4SDQ=-58.049446
 9\CCSD=-58.0498587\CCSD(T)=-58.0652203\RMSD=1.636e-09\PG=OH [O(Ti1)]\\
 @

 Normal termination of Gaussian 16 at Tue Mar 13 12:31:12 2018.
