 Gaussian 16, Revision A.03,
 Gaussian 16:  ES64L-G16RevA.03 25-Dec-2016

 ----------------------------------------------------------------------
 #P ROCCSD(T)=(MaxCyc=150, Full)/Gen SCF=(maxcycle=400) Integral(DKHSO,
  NoXCTest) Pop=Regular MaxDisk=500GB Guess=Read IOp(5/15=2)
 ----------------------------------------------------------------------

 ---
 CoO
 ---
 Symbolic Z-matrix:
 Charge =  0 Multiplicity = 4

                         Standard orientation:
 ---------------------------------------------------------------------
 Center     Atomic      Atomic             Coordinates (Angstroms)
 Number     Number       Type             X           Y           Z
 ---------------------------------------------------------------------
      1         27           0        0.000000    0.000000    0.365714
      2          8           0        0.000000    0.000000   -1.234286
 ---------------------------------------------------------------------

 SCF Done:  E(ROHF) =  -1466.71018489     A.U. after   19 cycles
 E2 =    -0.1610188741D+01 EUMP2 =    -0.14683203736290D+04
 CCSD(T)
 CCSD(T)= -0.14683225130D+04

 Unable to determine electronic state:  partially filled degenerate orbitals.
 Alpha  occ. eigenvalues -- -285.81687 -35.55304 -30.32009 -30.32009 -30.31660
 Alpha  occ. eigenvalues --  -20.48863  -4.78915  -3.22611  -3.22053  -3.22053
 Alpha  occ. eigenvalues --   -1.16309  -0.76414  -0.76414  -0.75053  -0.70007
 Alpha  occ. eigenvalues --   -0.67214  -0.38903  -0.38903  -0.36355
 Alpha virt. eigenvalues --   -0.04449   0.01886   0.01886   0.02119   0.03753
 Alpha virt. eigenvalues --    0.06815   0.06815   0.07081   0.07132   0.07141
 Alpha virt. eigenvalues --    0.08482   0.08482   0.12762   0.14502   0.21095

 Mulliken charges and spin densities:
               1          2
     1  Co   0.999405   2.900386
     2  O   -0.999405   0.099614
 Sum of Mulliken charges =  -0.00000   3.00000

 Dipole moment (field-independent basis, Debye):
    X=              0.0000    Y=              0.0000    Z=              7.6178  Tot=              7.6178
 Quadrupole moment (field-independent basis, Debye-Ang):
   XX=            -19.2196   YY=            -19.2196   ZZ=            -21.7554
   XY=              0.0000   XZ=              0.0000   YZ=              0.0000

 \\#P ROCCSD(T)=(MaxCyc=150, Full)/Gen SCF=(maxcycle=400) Integral(DKHS
 .3203736\MP4SDQ=-1468.2757937\CCSD=-1468.2635888\CCSD(T)=-1468.322513\
 Normal termination of Gaussian 16 at Sat Mar 31 16:15:39 2018.
