 Gaussian 16, Revision A.03,
 Gaussian 16:  ES64L-G16RevA.03 25-Dec-2016

 ----------------------------------------------------------------------
 #P ROCCSD(T)=(MaxCyc=150, Full)/Gen SCF=(maxcycle=400) Integral(DKHSO,
  NoXCTest) Pop=Regular MaxDisk=500GB Guess=Read IOp(5/15=2)
 ----------------------------------------------------------------------

 ---
 CoO
 ---
 Symbolic Z-matrix:
 Charge =  0 Multiplicity = 4

                         Standard orientation:
 ---------------------------------------------------------------------
 Center     Atomic      Atomic             Coordinates (Angstroms)
 Number     Number       Type             X           Y           Z
 ---------------------------------------------------------------------
      1         27           0        0.000000    0.000000    0.365714
      2          8           0        0.000000    0.000000   -1.234286
 ---------------------------------------------------------------------

 SCF Done:  E(ROHF) =  -1466.70415928     A.U. after   26 cycles
 E2 =    -0.1538613276D+01 EUMP2 =    -0.14682427725590D+04
 CCSD(T)
 CCSD(T)= -0.14682474259D+04

 Unable to determine electronic state:  partially filled degenerate orbitals.
 Alpha  occ. eigenvalues -- -285.81706 -35.55338 -30.32046 -30.32046 -30.31695
 Alpha  occ. eigenvalues --  -20.49024  -4.78939  -3.22637  -3.22076  -3.22076
 Alpha  occ. eigenvalues --   -1.16380  -0.76418  -0.76418  -0.75057  -0.70009
 Alpha  occ. eigenvalues --   -0.67224  -0.38895  -0.38895  -0.36372
 Alpha virt. eigenvalues --   -0.04455   0.02198   0.02198   0.02377   0.04168
 Alpha virt. eigenvalues --    0.07943   0.07943   0.09884   0.10841   0.10869
 Alpha virt. eigenvalues --    0.11741   0.11741   0.14992   0.15505   0.26156

 Mulliken charges and spin densities:
               1          2
     1  Co   1.060967   2.899512
     2  O   -1.060967   0.100488
 Sum of Mulliken charges =   0.00000   3.00000

 Dipole moment (field-independent basis, Debye):
    X=              0.0000    Y=              0.0000    Z=              7.6276  Tot=              7.6276
 Quadrupole moment (field-independent basis, Debye-Ang):
   XX=            -19.2243   YY=            -19.2243   ZZ=            -21.7734
   XY=              0.0000   XZ=              0.0000   YZ=              0.0000

 \\#P ROCCSD(T)=(MaxCyc=150, Full)/Gen SCF=(maxcycle=400) Integral(DKHS
 .2427726\MP4SDQ=-1468.2040007\CCSD=-1468.1909321\CCSD(T)=-1468.2474259
 Normal termination of Gaussian 16 at Sat Mar 31 14:21:53 2018.
