 Gaussian 16, Revision A.03,
 Gaussian 16:  ES64L-G16RevA.03 25-Dec-2016

 ----------------------------------------------------------------------
 #P ROCCSD(T)=(maxcyc=150, Full, SaveAmplitudes, ReadAmplitudes)/Gen 5d
  7f SCF=(maxcycles=300, VShift=400) Integral(NoXCTest) MaxDisk=500GB P
 op=Full Pseudo=Read Guess=Read IOp(5/15=2)
 ----------------------------------------------------------------------

 ---
 CrO
 ---
 Symbolic Z-matrix:
 Charge =  0 Multiplicity = 5

                         Standard orientation:
 ---------------------------------------------------------------------
 Center     Atomic      Atomic             Coordinates (Angstroms)
 Number     Number       Type             X           Y           Z
 ---------------------------------------------------------------------
      1         24           0        0.000000    0.000000    0.300000
      2          8           0        0.000000    0.000000   -0.900000
 ---------------------------------------------------------------------

 SCF Done:  E(ROHF) =  -101.454369569     A.U. after   61 cycles
 E2 =    -0.8864405414D+00 EUMP2 =    -0.10234081011054D+03
 CCSD(T)
 CCSD(T)= -0.10234709699D+03

 Unable to determine electronic state:  an orbital has unidentified symmetry.
 Alpha  occ. eigenvalues --   -3.70873  -2.49133  -2.44562  -2.40758  -1.26597
 Alpha  occ. eigenvalues --   -0.75026  -0.68951  -0.65505  -0.50469  -0.50377
 Alpha  occ. eigenvalues --   -0.30404  -0.26244
 Alpha virt. eigenvalues --    0.01454   0.02451   0.02784   0.02818   0.05427
 Alpha virt. eigenvalues --    0.07020   0.07661   0.07743   0.07791   0.07794
 Alpha virt. eigenvalues --    0.09626   0.09975   0.12233   0.17874   0.20703

 Mulliken charges and spin densities:
               1          2
     1  Cr   0.825007   3.725076
     2  O   -0.825007   0.274924
 Sum of Mulliken charges =  -0.00000   4.00000

 Dipole moment (field-independent basis, Debye):
    X=              0.0000    Y=              0.0000    Z=              0.2556  Tot=              0.2556
 Quadrupole moment (field-independent basis, Debye-Ang):
   XX=            -22.7927   YY=            -19.9708   ZZ=            -22.8771
   XY=              0.0000   XZ=              0.0000   YZ=              0.0000

 \\#P ROCCSD(T)=(maxcyc=150, Full, SaveAmplitudes, ReadAmplitudes)/Gen
 226775\CCSD=-102.3078946\CCSD(T)=-102.347097\RMSD=6.626e-09\PG=C*V [C*
 Normal termination of Gaussian 16 at Thu Apr 19 07:46:40 2018.
