 Gaussian 16, Revision A.03,
 Gaussian 16:  ES64L-G16RevA.03 25-Dec-2016

 ----------------------------------------------------------------------
 #P ROCCSD(T)=(MaxCyc=150, Full)/Gen SCF=(maxcycle=400) Integral(DKHSO,
  NoXCTest) Pop=Regular MaxDisk=500GB Guess=Read IOp(5/15=2)
 ----------------------------------------------------------------------

 ---
 ZnO
 ---
 Symbolic Z-matrix:
 Charge =  0 Multiplicity = 1

                         Standard orientation:
 ---------------------------------------------------------------------
 Center     Atomic      Atomic             Coordinates (Angstroms)
 Number     Number       Type             X           Y           Z
 ---------------------------------------------------------------------
      1         30           0        0.000000    0.000000    0.336842
      2          8           0        0.000000    0.000000   -1.263158
 ---------------------------------------------------------------------

 SCF Done:  E(ROHF) =  -1869.06618317     A.U. after   12 cycles
 E2 =    -0.1830936698D+01 EUMP2 =    -0.18708971198673D+04
 CCSD(T)
 CCSD(T)= -0.18708086109D+04

 The electronic state is 1-SG.
 Alpha  occ. eigenvalues -- -357.61785 -45.38783 -39.19118 -39.19118 -39.18837
 Alpha  occ. eigenvalues --  -20.49888  -5.85817  -3.93990  -3.93569  -3.93569
 Alpha  occ. eigenvalues --   -1.16798  -0.83158  -0.83158  -0.82122  -0.82122
 Alpha  occ. eigenvalues --   -0.79806  -0.39560  -0.39560  -0.38511
 Alpha virt. eigenvalues --   -0.04663   0.02691   0.02712   0.02712   0.04692
 Alpha virt. eigenvalues --    0.09134   0.09134   0.13401   0.17709   0.22081
 Alpha virt. eigenvalues --    0.23774   0.23774   0.24718   0.24718   0.30094

 Mulliken charges and spin densities:
               1          2
     1  Zn   1.133970   0.000000
     2  O   -1.133970   0.000000
 Sum of Mulliken charges =  -0.00000   0.00000

 Dipole moment (field-independent basis, Debye):
    X=              0.0000    Y=              0.0000    Z=              7.2021  Tot=              7.2021
 Quadrupole moment (field-independent basis, Debye-Ang):
   XX=            -18.2475   YY=            -18.2475   ZZ=            -21.5107
   XY=              0.0000   XZ=              0.0000   YZ=              0.0000

 P ROCCSD(T)=(MaxCyc=150, Full)/Gen SCF=(maxcycle=400) Integral(DKHSO,
 -0=-1870.8971199\MP4SDQ=-1870.8119557\CCSD=-1870.757773\CCSD(T)=-1870.
 Normal termination of Gaussian 16 at Sat Mar 17 03:59:10 2018.
