 Gaussian 16, Revision A.03,
 Gaussian 16:  ES64L-G16RevA.03 25-Dec-2016

 ----------------------------------------------------------------------
 #P ROCCSD(T)=(MaxCyc=150, Full)/Gen SCF=(maxcycle=400) Integral(DKHSO,
  NoXCTest) Pop=Regular MaxDisk=500GB Guess=Read IOp(5/15=2)
 ----------------------------------------------------------------------

 ---
 ZnO
 ---
 Symbolic Z-matrix:
 Charge =  0 Multiplicity = 1

                         Standard orientation:
 ---------------------------------------------------------------------
 Center     Atomic      Atomic             Coordinates (Angstroms)
 Number     Number       Type             X           Y           Z
 ---------------------------------------------------------------------
      1         30           0        0.000000    0.000000    0.336842
      2          8           0        0.000000    0.000000   -1.263158
 ---------------------------------------------------------------------

 SCF Done:  E(ROHF) =  -1869.07257685     A.U. after   10 cycles
 E2 =    -0.1920563446D+01 EUMP2 =    -0.18709931402984D+04
 CCSD(T)
 CCSD(T)= -0.18709023084D+04

 The electronic state is 1-SG.
 Alpha  occ. eigenvalues -- -357.61783 -45.38756 -39.19088 -39.19088 -39.18807
 Alpha  occ. eigenvalues --  -20.49731  -5.85795  -3.93961  -3.93548  -3.93548
 Alpha  occ. eigenvalues --   -1.16728  -0.83146  -0.83146  -0.82115  -0.82115
 Alpha  occ. eigenvalues --   -0.79787  -0.39572  -0.39572  -0.38492
 Alpha virt. eigenvalues --   -0.04651   0.02455   0.02455   0.02461   0.04212
 Alpha virt. eigenvalues --    0.07942   0.07942   0.12022   0.16533   0.17719
 Alpha virt. eigenvalues --    0.17817   0.17817   0.20604   0.20604   0.23147

 Mulliken charges and spin densities:
               1          2
     1  Zn   1.013652   0.000000
     2  O   -1.013652   0.000000
 Sum of Mulliken charges =   0.00000   0.00000

 Dipole moment (field-independent basis, Debye):
    X=              0.0000    Y=             -0.0000    Z=              7.1894  Tot=              7.1894
 Quadrupole moment (field-independent basis, Debye-Ang):
   XX=            -18.2331   YY=            -18.2331   ZZ=            -21.5090
   XY=              0.0000   XZ=              0.0000   YZ=             -0.0000

 P ROCCSD(T)=(MaxCyc=150, Full)/Gen SCF=(maxcycle=400) Integral(DKHSO,
 -0=-1870.9931403\MP4SDQ=-1870.9017418\CCSD=-1870.8486964\CCSD(T)=-1870
 Normal termination of Gaussian 16 at Sat Mar 17 11:50:58 2018.
