 Gaussian 16, Revision A.03,
 Gaussian 16:  ES64L-G16RevA.03 25-Dec-2016

 ----------------------------------------------------------------------
 #P ROCCSD(T)=(maxcyc=150, Full, SaveAmplitudes, ReadAmplitudes)/Gen 5d
  7f SCF=(maxcycles=300) Integral(NoXCTest) MaxDisk=500GB Pop=Regular P
 seudo=Read Guess=Read IOp(5/15=2)
 ----------------------------------------------------------------------

 ---
 TiO
 ---
 Symbolic Z-matrix:
 Charge =  0 Multiplicity = 3

                         Standard orientation:
 ---------------------------------------------------------------------
 Center     Atomic      Atomic             Coordinates (Angstroms)
 Number     Number       Type             X           Y           Z
 ---------------------------------------------------------------------
      1         22           0        0.000000    0.000000    0.453333
      2          8           0        0.000000    0.000000   -1.246667
 ---------------------------------------------------------------------

 SCF Done:  E(ROHF) =  -73.3025908882     A.U. after   19 cycles
 E2 =    -0.7457682533D+00 EUMP2 =    -0.74048359141520D+02
 CCSD(T)
 CCSD(T)= -0.74080353832D+02

 Unable to determine electronic state:  an orbital has unidentified symmetry.
 Alpha  occ. eigenvalues --   -3.02815  -1.93817  -1.93817  -1.90868  -1.15530
 Alpha  occ. eigenvalues --   -0.47974  -0.45109  -0.42152  -0.42152  -0.27503
 Alpha virt. eigenvalues --   -0.00019  -0.00019   0.01236   0.02445   0.03850
 Alpha virt. eigenvalues --    0.03850   0.04512   0.04835   0.05131   0.05893
 Alpha virt. eigenvalues --    0.05893   0.06369   0.09555   0.11043   0.13038

 Mulliken charges and spin densities:
               1          2
     1  Ti   0.926326   1.991280
     2  O   -0.926326   0.008720
 Sum of Mulliken charges =  -0.00000   2.00000

 Dipole moment (field-independent basis, Debye):
    X=              0.0000    Y=              0.0000    Z=              5.1225  Tot=              5.1225
 Quadrupole moment (field-independent basis, Debye-Ang):
   XX=            -21.5719   YY=            -21.5719   ZZ=            -29.7461
   XY=              0.0000   XZ=              0.0000   YZ=              0.0000

 \\#P ROCCSD(T)=(maxcyc=150, Full, SaveAmplitudes, ReadAmplitudes)/Gen
 .0323643\CCSD(T)=-74.0803538\RMSD=3.245e-09\PG=C*V [C*(O1Ti1)]\\@
 Normal termination of Gaussian 16 at Sat Mar 10 02:03:44 2018.
