 Gaussian 16, Revision A.03,
 Gaussian 16:  ES64L-G16RevA.03 25-Dec-2016

 ----------------------------------------------------------------------
 #P ROCCSD(T)=(MaxCyc=150, Full)/Gen SCF=(maxcycle=400, vshift=200) Pse
 udo=Read Integral(NoXCTest) Pop=Regular MaxDisk=500GB
 ----------------------------------------------------------------------

 ---
 FeO
 ---
 Symbolic Z-matrix:
 Charge =  0 Multiplicity = 5

                         Standard orientation:
 ---------------------------------------------------------------------
 Center     Atomic      Atomic             Coordinates (Angstroms)
 Number     Number       Type             X           Y           Z
 ---------------------------------------------------------------------
      1         26           0        0.000000    0.000000    0.376471
      2          8           0        0.000000    0.000000   -1.223529
 ---------------------------------------------------------------------

 SCF Done:  E(ROHF) =  -138.312610698     A.U. after   30 cycles
 E2 =    -0.1041986405D+01 EUMP2 =    -0.13935459710300D+03
 CCSD(T)
 CCSD(T)= -0.13937865361D+03

 Unable to determine electronic state:  partially filled degenerate orbitals.
 Alpha  occ. eigenvalues --   -4.43649  -3.01071  -2.93995  -2.93995  -1.14558
 Alpha  occ. eigenvalues --   -0.68433  -0.68433  -0.64450  -0.64343  -0.59566
 Alpha  occ. eigenvalues --   -0.35539  -0.34981  -0.34981
 Alpha virt. eigenvalues --   -0.04540   0.01596   0.01596   0.01803   0.03581
 Alpha virt. eigenvalues --    0.06276   0.06276   0.06462   0.06473   0.06654
 Alpha virt. eigenvalues --    0.07961   0.07961   0.12033   0.13667   0.19200

 Mulliken charges and spin densities:
               1          2
     1  Fe   1.151136   3.849178
     2  O   -1.151136   0.150822
 Sum of Mulliken charges =  -0.00000   4.00000

 Dipole moment (field-independent basis, Debye):
    X=              0.0000    Y=              0.0000    Z=              8.6590  Tot=              8.6590
 Quadrupole moment (field-independent basis, Debye-Ang):
   XX=            -18.3690   YY=            -18.3690   ZZ=            -22.3437
   XY=              0.0000   XZ=              0.0000   YZ=              0.0000

 \\#P ROCCSD(T)=(MaxCyc=150, Full)/Gen SCF=(maxcycle=400, vshift=200) P
 4SDQ=-139.3405633\CCSD=-139.3291966\CCSD(T)=-139.3786536\RMSD=9.334e-0
 Normal termination of Gaussian 16 at Wed Apr 18 07:40:56 2018.
