 Gaussian 16, Revision A.03,
 Gaussian 16:  ES64L-G16RevA.03 25-Dec-2016

 ----------------------------------------------------------------------
 #P ROCCSD(T)=(MaxCyc=150, Full)/Gen SCF=(maxcycle=400, vshift=200) Pse
 udo=Read Integral(NoXCTest) Pop=Regular MaxDisk=500GB
 ----------------------------------------------------------------------

 ---
 FeO
 ---
 Symbolic Z-matrix:
 Charge =  0 Multiplicity = 5

                         Standard orientation:
 ---------------------------------------------------------------------
 Center     Atomic      Atomic             Coordinates (Angstroms)
 Number     Number       Type             X           Y           Z
 ---------------------------------------------------------------------
      1         26           0        0.000000    0.000000    0.376471
      2          8           0        0.000000    0.000000   -1.223529
 ---------------------------------------------------------------------

 SCF Done:  E(ROHF) =  -138.309857344     A.U. after   37 cycles
 E2 =    -0.9945223314D+00 EUMP2 =    -0.13930437967570D+03
 CCSD(T)
 CCSD(T)= -0.13933095472D+03

 Unable to determine electronic state:  partially filled degenerate orbitals.
 Alpha  occ. eigenvalues --   -4.43661  -3.01093  -2.94012  -2.94012  -1.14605
 Alpha  occ. eigenvalues --   -0.68438  -0.68438  -0.64462  -0.64349  -0.59571
 Alpha  occ. eigenvalues --   -0.35553  -0.34980  -0.34980
 Alpha virt. eigenvalues --   -0.04546   0.01890   0.01890   0.02076   0.04024
 Alpha virt. eigenvalues --    0.07328   0.07328   0.08839   0.09608   0.09639
 Alpha virt. eigenvalues --    0.10747   0.10747   0.14226   0.14800   0.25073

 Mulliken charges and spin densities:
               1          2
     1  Fe   1.147789   3.837092
     2  O   -1.147789   0.162908
 Sum of Mulliken charges =  -0.00000   4.00000

 Dipole moment (field-independent basis, Debye):
    X=              0.0000    Y=              0.0000    Z=              8.6682  Tot=              8.6682
 Quadrupole moment (field-independent basis, Debye-Ang):
   XX=            -18.3697   YY=            -18.3697   ZZ=            -22.3655
   XY=              0.0000   XZ=              0.0000   YZ=              0.0000

 \\#P ROCCSD(T)=(MaxCyc=150, Full)/Gen SCF=(maxcycle=400, vshift=200) P
 4SDQ=-139.2956618\CCSD=-139.2837917\CCSD(T)=-139.3309547\RMSD=6.400e-0
 Normal termination of Gaussian 16 at Wed Apr 18 05:37:20 2018.
