 Gaussian 16, Revision A.03,
 Gaussian 16:  ES64L-G16RevA.03 25-Dec-2016

 ----------------------------------------------------------------------
 #P ROCCSD(T)=(maxcyc=150, Full, SaveAmplitudes, ReadAmplitudes)/Gen 5d
  7f SCF=(maxcycles=300) Integral(NoXCTest) MaxDisk=500GB Pop=Regular P
 seudo=Read Guess=Read IOp(5/15=2)
 ----------------------------------------------------------------------

 ---
 TiO
 ---
 Symbolic Z-matrix:
 Charge =  0 Multiplicity = 3

                         Standard orientation:
 ---------------------------------------------------------------------
 Center     Atomic      Atomic             Coordinates (Angstroms)
 Number     Number       Type             X           Y           Z
 ---------------------------------------------------------------------
      1         22           0        0.000000    0.000000    0.400000
      2          8           0        0.000000    0.000000   -1.100000
 ---------------------------------------------------------------------

 SCF Done:  E(ROHF) =  -73.5310632966     A.U. after   22 cycles
 E2 =    -0.7535447569D+00 EUMP2 =    -0.74284608053573D+02
 CCSD(T)
 CCSD(T)= -0.74311577401D+02

 Unable to determine electronic state:  an orbital has unidentified symmetry.
 Alpha  occ. eigenvalues --   -3.01350  -1.88630  -1.86784  -1.86784  -1.15370
 Alpha  occ. eigenvalues --   -0.48797  -0.48797  -0.48362  -0.41852  -0.24962
 Alpha virt. eigenvalues --    0.00704   0.00704   0.01911   0.02577   0.04367
 Alpha virt. eigenvalues --    0.04367   0.04944   0.05040   0.05232   0.05842
 Alpha virt. eigenvalues --    0.05842   0.07429   0.11376   0.11966   0.14075

 Mulliken charges and spin densities:
               1          2
     1  Ti   0.886203   2.008231
     2  O   -0.886203  -0.008231
 Sum of Mulliken charges =  -0.00000   2.00000

 Dipole moment (field-independent basis, Debye):
    X=              0.0000    Y=              0.0000    Z=              3.1130  Tot=              3.1130
 Quadrupole moment (field-independent basis, Debye-Ang):
   XX=            -21.4568   YY=            -21.4568   ZZ=            -28.4545
   XY=              0.0000   XZ=              0.0000   YZ=              0.0000

 \\#P ROCCSD(T)=(maxcyc=150, Full, SaveAmplitudes, ReadAmplitudes)/Gen
 2701861\CCSD(T)=-74.3115774\RMSD=4.300e-09\PG=C*V [C*(O1Ti1)]\\@
 Normal termination of Gaussian 16 at Mon Mar 12 23:18:41 2018.
