 Gaussian 16, Revision A.03,
 Gaussian 16:  ES64L-G16RevA.03 25-Dec-2016

 ----------------------------------------------------------------------
 #P ROCCSD(T)=(MaxCyc=150, Window=(7,0))/Gen SCF=(maxcycle=400) Integra
 l(DKHSO, NoXCTest) Pop=Regular MaxDisk=500GB Guess=Read IOp(5/15=2)
 ----------------------------------------------------------------------

 ---
 CuO
 ---
 Symbolic Z-matrix:
 Charge =  0 Multiplicity = 2

                         Standard orientation:
 ---------------------------------------------------------------------
 Center     Atomic      Atomic             Coordinates (Angstroms)
 Number     Number       Type             X           Y           Z
 ---------------------------------------------------------------------
      1         29           0        0.000000    0.000000    0.324324
      2          8           0        0.000000    0.000000   -1.175676
 ---------------------------------------------------------------------

 SCF Done:  E(ROHF) =  -1727.99239315     A.U. after   17 cycles
 E2 =    -0.1370397070D+01 EUMP2 =    -0.17293627902222D+04
 CCSD(T)
 CCSD(T)= -0.17292725812D+04

 Unable to determine electronic state:  an orbital has unidentified symmetry.
 Alpha  occ. eigenvalues -- -332.55092 -41.73701 -35.87667 -35.87489 -35.87341
 Alpha  occ. eigenvalues --  -20.55092  -5.23522  -3.45166  -3.43450  -3.42812
 Alpha  occ. eigenvalues --   -1.27094  -0.64748  -0.61172  -0.59219  -0.54573
 Alpha  occ. eigenvalues --   -0.54572  -0.48055  -0.42569  -0.38208
 Alpha virt. eigenvalues --   -0.00516   0.02665   0.02801   0.03601   0.04734
 Alpha virt. eigenvalues --    0.09221   0.09560   0.12051   0.13641   0.13653
 Alpha virt. eigenvalues --    0.14266   0.14297   0.14692   0.19151   0.21686

 Mulliken charges and spin densities:
               1          2
     1  Cu   0.698428   0.054617
     2  O   -0.698428   0.945383
 Sum of Mulliken charges =   0.00000   1.00000

 Dipole moment (field-independent basis, Debye):
    X=              0.0000    Y=              0.0000    Z=              4.8339  Tot=              4.8339
 Quadrupole moment (field-independent basis, Debye-Ang):
   XX=            -17.9517   YY=            -16.4498   ZZ=            -19.1209
   XY=              0.0000   XZ=              0.0000   YZ=              0.0000

 1\1\GINC-C502-104\SP\ROCCSD(T)-RW\Gen\Cu1O1(2)\GWANG18\26-Mar-2018\0\\
 #P ROCCSD(T)=(MaxCyc=150, Window=(7,0))/Gen SCF=(maxcycle=400) Integra
 l(DKHSO, NoXCTest) Pop=Regular MaxDisk=500GB Guess=Read IOp(5/15=2)\\C
 uO\\0,2\Cu,0,0.,0.,0.\O,0,0.,0.,1.5\\Version=ES64L-G16RevA.03\HF=-1727
 .9923932\MP2=-1729.3627902\MP3=-1729.1098568\PUHF=-1727.9923932\PMP2-0
 =-1729.3627902\MP4SDQ=-1729.3137206\CCSD=-1729.2202432\CCSD(T)=-1729.2
 725812\RMSD=5.966e-09\PG=C*V [C*(O1Cu1)]\\@

 Normal termination of Gaussian 16 at Mon Mar 26 01:35:45 2018.
