 Gaussian 16, Revision A.03,
 Gaussian 16:  ES64L-G16RevA.03 25-Dec-2016

 ----------------------------------------------------------------------
 #P ROCCSD(T)=(MaxCyc=150, Window=(7,0))/Gen SCF=(maxcycle=400) Integra
 l(DKHSO, NoXCTest) Pop=Regular MaxDisk=500GB Guess=Read IOp(5/15=2)
 ----------------------------------------------------------------------

 ---
 CuO
 ---
 Symbolic Z-matrix:
 Charge =  0 Multiplicity = 2

                         Standard orientation:
 ---------------------------------------------------------------------
 Center     Atomic      Atomic             Coordinates (Angstroms)
 Number     Number       Type             X           Y           Z
 ---------------------------------------------------------------------
      1         29           0        0.000000    0.000000    0.324324
      2          8           0        0.000000    0.000000   -1.175676
 ---------------------------------------------------------------------

 SCF Done:  E(ROHF) =  -1727.98577583     A.U. after   20 cycles
 E2 =    -0.1307823319D+01 EUMP2 =    -0.17292935991538D+04
 CCSD(T)
 CCSD(T)= -0.17292060606D+04

 Unable to determine electronic state:  an orbital has unidentified symmetry.
 Alpha  occ. eigenvalues -- -332.55090 -41.73720 -35.87690 -35.87511 -35.87363
 Alpha  occ. eigenvalues --  -20.55260  -5.23536  -3.45190  -3.43465  -3.42822
 Alpha  occ. eigenvalues --   -1.27176  -0.64741  -0.61166  -0.59234  -0.54570
 Alpha  occ. eigenvalues --   -0.54568  -0.48051  -0.42564  -0.38222
 Alpha virt. eigenvalues --   -0.00503   0.03006   0.03175   0.04016   0.05031
 Alpha virt. eigenvalues --    0.10742   0.11179   0.13742   0.19377   0.19886
 Alpha virt. eigenvalues --    0.19907   0.21440   0.21448   0.22428   0.26021

 Mulliken charges and spin densities:
               1          2
     1  Cu   0.869852   0.050322
     2  O   -0.869852   0.949678
 Sum of Mulliken charges =  -0.00000   1.00000

 Dipole moment (field-independent basis, Debye):
    X=              0.0000    Y=              0.0000    Z=              4.8480  Tot=              4.8480
 Quadrupole moment (field-independent basis, Debye-Ang):
   XX=            -17.9788   YY=            -16.4600   ZZ=            -19.1087
   XY=              0.0000   XZ=              0.0000   YZ=              0.0000

 1\1\GINC-C502-104\SP\ROCCSD(T)-RW\Gen\Cu1O1(2)\GWANG18\26-Mar-2018\0\\
 #P ROCCSD(T)=(MaxCyc=150, Window=(7,0))/Gen SCF=(maxcycle=400) Integra
 l(DKHSO, NoXCTest) Pop=Regular MaxDisk=500GB Guess=Read IOp(5/15=2)\\C
 uO\\0,2\Cu,0,0.,0.,0.\O,0,0.,0.,1.5\\Version=ES64L-G16RevA.03\HF=-1727
 .9857758\MP2=-1729.2935992\MP3=-1729.0435458\PUHF=-1727.9857758\PMP2-0
 =-1729.2935992\MP4SDQ=-1729.2505911\CCSD=-1729.1562553\CCSD(T)=-1729.2
 060606\RMSD=2.982e-09\PG=C*V [C*(O1Cu1)]\\@

 Normal termination of Gaussian 16 at Mon Mar 26 00:30:19 2018.
