 Gaussian 16, Revision A.03,
 Gaussian 16:  ES64L-G16RevA.03 25-Dec-2016

 ----------------------------------------------------------------------
 #P ROCCSD(T)=(MaxCyc=150, Full)/Gen SCF=(maxcycle=400) Pseudo=Read Int
 egral(NoXCTest) Pop=Regular MaxDisk=500GB Guess=Read IOp(5/15=2)
 ----------------------------------------------------------------------

 ---
 CoO
 ---
 Symbolic Z-matrix:
 Charge =  0 Multiplicity = 4

                         Standard orientation:
 ---------------------------------------------------------------------
 Center     Atomic      Atomic             Coordinates (Angstroms)
 Number     Number       Type             X           Y           Z
 ---------------------------------------------------------------------
      1         27           0        0.000000    0.000000    0.297143
      2          8           0        0.000000    0.000000   -1.002857
 ---------------------------------------------------------------------

 SCF Done:  E(ROHF) =  -160.172956120     A.U. after   24 cycles
 E2 =    -0.1134645875D+01 EUMP2 =    -0.16130760199498D+03
 CCSD(T)
 CCSD(T)= -0.16129588302D+03

 Unable to determine electronic state:  partially filled degenerate orbitals.
 Alpha  occ. eigenvalues --   -4.87549  -3.34298  -3.30391  -3.30391  -1.32515
 Alpha  occ. eigenvalues --   -0.84847  -0.84847  -0.76710  -0.71690  -0.70926
 Alpha  occ. eigenvalues --   -0.47273  -0.47273  -0.34393
 Alpha virt. eigenvalues --   -0.00251   0.02833   0.02833   0.03669   0.04211
 Alpha virt. eigenvalues --    0.09093   0.09093   0.10690   0.11263   0.11288
 Alpha virt. eigenvalues --    0.11574   0.11574   0.13594   0.17348   0.25845

 Mulliken charges and spin densities:
               1          2
     1  Co   0.785224   2.698564
     2  O   -0.785224   0.301436
 Sum of Mulliken charges =  -0.00000   3.00000

 Dipole moment (field-independent basis, Debye):
    X=              0.0000    Y=              0.0000    Z=              3.8210  Tot=              3.8210
 Quadrupole moment (field-independent basis, Debye-Ang):
   XX=            -19.7052   YY=            -19.7052   ZZ=            -20.0340
   XY=              0.0000   XZ=              0.0000   YZ=              0.0000

 \\#P ROCCSD(T)=(MaxCyc=150, Full)/Gen SCF=(maxcycle=400) Pseudo=Read I
 307602\MP4SDQ=-161.2711615\CCSD=-161.2456827\CCSD(T)=-161.295883\RMSD=
 Normal termination of Gaussian 16 at Sat Mar 31 14:31:50 2018.
