 Gaussian 16, Revision A.03,
 Gaussian 16:  ES64L-G16RevA.03 25-Dec-2016

 ----------------------------------------------------------------------
 #P ROCCSD(T)=(MaxCyc=150, Full)/Gen SCF=(maxcycle=400) Pseudo=Read Int
 egral(NoXCTest) Pop=Regular MaxDisk=500GB Guess=Read IOp(5/15=2)
 ----------------------------------------------------------------------

 ---
 CoO
 ---
 Symbolic Z-matrix:
 Charge =  0 Multiplicity = 4

                         Standard orientation:
 ---------------------------------------------------------------------
 Center     Atomic      Atomic             Coordinates (Angstroms)
 Number     Number       Type             X           Y           Z
 ---------------------------------------------------------------------
      1         27           0        0.000000    0.000000    0.297143
      2          8           0        0.000000    0.000000   -1.002857
 ---------------------------------------------------------------------

 SCF Done:  E(ROHF) =  -160.176461365     A.U. after   22 cycles
 E2 =    -0.1187209457D+01 EUMP2 =    -0.16136367082172D+03
 CCSD(T)
 CCSD(T)= -0.16134961351D+03

 Unable to determine electronic state:  partially filled degenerate orbitals.
 Alpha  occ. eigenvalues --   -4.87547  -3.34278  -3.30385  -3.30385  -1.32471
 Alpha  occ. eigenvalues --   -0.84859  -0.84859  -0.76716  -0.71699  -0.70924
 Alpha  occ. eigenvalues --   -0.47291  -0.47291  -0.34375
 Alpha virt. eigenvalues --   -0.00267   0.02550   0.02550   0.03366   0.03944
 Alpha virt. eigenvalues --    0.07090   0.07090   0.07197   0.07359   0.07367
 Alpha virt. eigenvalues --    0.09101   0.09101   0.12010   0.16227   0.21662

 Mulliken charges and spin densities:
               1          2
     1  Co   0.745714   2.703350
     2  O   -0.745714   0.296650
 Sum of Mulliken charges =  -0.00000   3.00000

 Dipole moment (field-independent basis, Debye):
    X=              0.0000    Y=              0.0000    Z=              3.8077  Tot=              3.8077
 Quadrupole moment (field-independent basis, Debye-Ang):
   XX=            -19.7072   YY=            -19.7072   ZZ=            -20.0194
   XY=              0.0000   XZ=              0.0000   YZ=              0.0000

 \\#P ROCCSD(T)=(MaxCyc=150, Full)/Gen SCF=(maxcycle=400) Pseudo=Read I
 .3636708\MP4SDQ=-161.3218286\CCSD=-161.2971088\CCSD(T)=-161.3496135\RM
 Normal termination of Gaussian 16 at Sat Mar 31 16:35:20 2018.
