 Gaussian 16, Revision A.03,
 Gaussian 16:  ES64L-G16RevA.03 25-Dec-2016

 ----------------------------------------------------------------------
 #P ROCCSD(T)=(maxcyc=150, Full, SaveAmplitudes, ReadAmplitudes)/Gen 5d
  7f SCF=(maxcycles=300) Integral(NoXCTest) MaxDisk=500GB Pop=Regular P
 seudo=Read Guess=Read IOp(5/15=2)
 ----------------------------------------------------------------------

 ---
 TiO
 ---
 Symbolic Z-matrix:
 Charge =  0 Multiplicity = 3

                         Standard orientation:
 ---------------------------------------------------------------------
 Center     Atomic      Atomic             Coordinates (Angstroms)
 Number     Number       Type             X           Y           Z
 ---------------------------------------------------------------------
      1         22           0        0.000000    0.000000    0.453333
      2          8           0        0.000000    0.000000   -1.246667
 ---------------------------------------------------------------------

 SCF Done:  E(ROHF) =  -73.5347164639     A.U. after   22 cycles
 E2 =    -0.7579595867D+00 EUMP2 =    -0.74292676050593D+02
 CCSD(T)
 CCSD(T)= -0.74325073698D+02

 Unable to determine electronic state:  an orbital has unidentified symmetry.
 Alpha  occ. eigenvalues --   -3.06867  -1.92464  -1.92464  -1.89366  -1.13738
 Alpha  occ. eigenvalues --   -0.47719  -0.45023  -0.42006  -0.42006  -0.27647
 Alpha virt. eigenvalues --   -0.00065  -0.00065   0.01255   0.02417   0.03820
 Alpha virt. eigenvalues --    0.03820   0.04510   0.04835   0.05127   0.05894
 Alpha virt. eigenvalues --    0.05894   0.06367   0.09646   0.11018   0.13048

 Mulliken charges and spin densities:
               1          2
     1  Ti   0.951224   1.991707
     2  O   -0.951224   0.008293
 Sum of Mulliken charges =  -0.00000   2.00000

 Dipole moment (field-independent basis, Debye):
    X=              0.0000    Y=              0.0000    Z=              5.1290  Tot=              5.1290
 Quadrupole moment (field-independent basis, Debye-Ang):
   XX=            -21.4551   YY=            -21.4550   ZZ=            -29.8322
   XY=              0.0000   XZ=              0.0000   YZ=              0.0000

 \\#P ROCCSD(T)=(maxcyc=150, Full, SaveAmplitudes, ReadAmplitudes)/Gen
 .276684\CCSD(T)=-74.3250737\RMSD=3.521e-09\PG=C*V [C*(O1Ti1)]\\@
 Normal termination of Gaussian 16 at Tue Mar 13 00:59:27 2018.
