 Gaussian 16, Revision A.03,
 Gaussian 16:  ES64L-G16RevA.03 25-Dec-2016

 ----------------------------------------------------------------------
 #P ROCCSD(T)=(maxcyc=150, Full, SaveAmplitudes, ReadAmplitudes)/Gen 5d
  7f SCF=(maxcycles=300) Integral(NoXCTest) MaxDisk=500GB Pop=Regular P
 seudo=Read Guess=Read
 ----------------------------------------------------------------------

 ---
 ScO
 ---
 Symbolic Z-matrix:
 Charge =  0 Multiplicity = 2

                         Standard orientation:
 ---------------------------------------------------------------------
 Center     Atomic      Atomic             Coordinates (Angstroms)
 Number     Number       Type             X           Y           Z
 ---------------------------------------------------------------------
      1         21           0        0.000000    0.000000    0.468966
      2          8           0        0.000000    0.000000   -1.231034
 ---------------------------------------------------------------------

 SCF Done:  E(ROHF) =  -62.0838196852     A.U. after   17 cycles
 E2 =    -0.7160865157D+00 EUMP2 =    -0.62799906200886D+02
 CCSD(T)
 CCSD(T)= -0.62826149144D+02

 The electronic state is 2-SG.
 Alpha  occ. eigenvalues --   -2.69770  -1.66632  -1.63769  -1.63769  -1.11528
 Alpha  occ. eigenvalues --   -0.42640  -0.40966  -0.40966  -0.25392
 Alpha virt. eigenvalues --   -0.00035  -0.00035   0.01282   0.02046   0.02702
 Alpha virt. eigenvalues --    0.02702   0.02974   0.02974   0.03237   0.03237
 Alpha virt. eigenvalues --    0.03460   0.04602   0.06793   0.06793   0.09315

 Mulliken charges and spin densities:
               1          2
     1  Sc   1.274252   0.986453
     2  O   -1.274252   0.013547
 Sum of Mulliken charges =  -0.00000   1.00000

 Dipole moment (field-independent basis, Debye):
    X=              0.0000    Y=              0.0000    Z=              4.9259  Tot=              4.9259
 Quadrupole moment (field-independent basis, Debye-Ang):
   XX=            -21.7894   YY=            -21.7894   ZZ=            -32.3442
   XY=              0.0000   XZ=              0.0000   YZ=              0.0000

 \\#P ROCCSD(T)=(maxcyc=150, Full, SaveAmplitudes, ReadAmplitudes)/Gen
 838197\PMP2-0=-62.7999062\CCSD=-62.7834363\CCSD(T)=-62.8261491\RMSD=4.
 Normal termination of Gaussian 16 at Wed Feb 21 05:10:36 2018.
