 Gaussian 16, Revision A.03,
 Gaussian 16:  ES64L-G16RevA.03 25-Dec-2016

 ----------------------------------------------------------------------
 #P ROCCSD(T)=(maxcyc=150, Full, SaveAmplitudes, ReadAmplitudes)/Gen 5d
  7f SCF=(maxcycles=300) Integral(NoXCTest) MaxDisk=500GB Pop=Regular P
 seudo=Read Guess=Read IOp(5/15=2)
 ----------------------------------------------------------------------

 ---
 ScO
 ---
 Symbolic Z-matrix:
 Charge =  0 Multiplicity = 2

                         Standard orientation:
 ---------------------------------------------------------------------
 Center     Atomic      Atomic             Coordinates (Angstroms)
 Number     Number       Type             X           Y           Z
 ---------------------------------------------------------------------
      1         21           0        0.000000    0.000000    0.358621
      2          8           0        0.000000    0.000000   -0.941379
 ---------------------------------------------------------------------

 SCF Done:  E(ROHF) =  -61.9190417044     A.U. after   18 cycles
 E2 =    -0.6691736209D+00 EUMP2 =    -0.62588215325293D+02
 CCSD(T)
 CCSD(T)= -0.62615932008D+02

 The electronic state is 2-SG.
 Alpha  occ. eigenvalues --   -2.61599  -1.76390  -1.53063  -1.53063  -1.06070
 Alpha  occ. eigenvalues --   -0.57642  -0.57642  -0.47035  -0.19551
 Alpha virt. eigenvalues --    0.01007   0.01007   0.02051   0.02479   0.03786
 Alpha virt. eigenvalues --    0.03786   0.03805   0.03805   0.03907   0.04788
 Alpha virt. eigenvalues --    0.04788   0.07363   0.10886   0.10886   0.10979

 Mulliken charges and spin densities:
               1          2
     1  Sc   1.184441   1.007229
     2  O   -1.184441  -0.007229
 Sum of Mulliken charges =  -0.00000   1.00000

 Dipole moment (field-independent basis, Debye):
    X=              0.0000    Y=              0.0000    Z=              0.2527  Tot=              0.2527
 Quadrupole moment (field-independent basis, Debye-Ang):
   XX=            -22.6663   YY=            -22.6663   ZZ=            -29.3692
   XY=              0.0000   XZ=              0.0000   YZ=              0.0000

 \\#P ROCCSD(T)=(maxcyc=150, Full, SaveAmplitudes, ReadAmplitudes)/Gen
 2\CCSD=-62.5856651\CCSD(T)=-62.615932\RMSD=3.399e-09\PG=C*V [C*(O1Sc1)
 Normal termination of Gaussian 16 at Tue Feb 20 22:35:23 2018.
