 Gaussian 16, Revision A.03,
 Gaussian 16:  ES64L-G16RevA.03 25-Dec-2016

 ----------------------------------------------------------------------
 #P ROCCSD(T)=(maxcyc=150, Full)/Gen 5d 7f SCF=(maxcycles=300) Integral
 (NoXCTest) MaxDisk=500GB Pop=Regular Pseudo=Read Guess=Read
 ----------------------------------------------------------------------

 ---
 ScH
 ---
 Symbolic Z-matrix:
 Charge =  0 Multiplicity = 1

                         Standard orientation:
 ---------------------------------------------------------------------
 Center     Atomic      Atomic             Coordinates (Angstroms)
 Number     Number       Type             X           Y           Z
 ---------------------------------------------------------------------
      1         21           0        0.000000    0.000000    0.086364
      2          1           0        0.000000    0.000000   -1.813636
 ---------------------------------------------------------------------

 SCF Done:  E(ROHF) =  -46.6595223505     A.U. after   10 cycles
 E2 =    -0.4203397996D+00 EUMP2 =    -0.47079862150101D+02
 CCSD(T)
 CCSD(T)= -0.47124816867D+02

 The electronic state is 1-SG.
 Alpha  occ. eigenvalues --   -2.69796  -1.67459  -1.67459  -1.67321  -0.39216
 Alpha  occ. eigenvalues --   -0.23588
 Alpha virt. eigenvalues --    0.01044   0.01044   0.01361   0.01996   0.02836
 Alpha virt. eigenvalues --    0.02836   0.02935   0.02935   0.02973   0.03988
 Alpha virt. eigenvalues --    0.03988   0.04020   0.06983   0.06983   0.07657

 Mulliken charges and spin densities:
               1          2
     1  Sc   0.263165   0.000000
     2  H   -0.263165   0.000000
 Sum of Mulliken charges =  -0.00000   0.00000

 Dipole moment (field-independent basis, Debye):
    X=              0.0000    Y=              0.0000    Z=              1.8388  Tot=              1.8388
 Quadrupole moment (field-independent basis, Debye-Ang):
   XX=            -22.9732   YY=            -22.9732   ZZ=            -27.5478
   XY=              0.0000   XZ=              0.0000   YZ=              0.0000

 P ROCCSD(T)=(maxcyc=150, Full)/Gen 5d 7f SCF=(maxcycles=300) Integral(
 798622\MP4SDQ=-47.1049681\CCSD=-47.1051328\CCSD(T)=-47.1248169\RMSD=5.
 Normal termination of Gaussian 16 at Tue Feb 13 06:31:46 2018.
