 Gaussian 16, Revision A.03,
 Gaussian 16:  ES64L-G16RevA.03 25-Dec-2016

 ----------------------------------------------------------------------
 #P ROCCSD(T)=(maxcyc=150, Full, SaveAmplitudes, ReadAmplitudes)/Gen 5d
  7f SCF=(maxcycles=300) Integral(NoXCTest) MaxDisk=500GB Pop=Regular P
 seudo=Read Guess=Read IOp(5/15=2)
 ----------------------------------------------------------------------

 ---
 ScO
 ---
 Symbolic Z-matrix:
 Charge =  0 Multiplicity = 2

                         Standard orientation:
 ---------------------------------------------------------------------
 Center     Atomic      Atomic             Coordinates (Angstroms)
 Number     Number       Type             X           Y           Z
 ---------------------------------------------------------------------
      1         21           0        0.000000    0.000000    0.331034
      2          8           0        0.000000    0.000000   -0.868966
 ---------------------------------------------------------------------

 SCF Done:  E(ROHF) =  -61.6525803156     A.U. after   18 cycles
 E2 =    -0.6536074103D+00 EUMP2 =    -0.62306187725900D+02
 CCSD(T)
 CCSD(T)= -0.62337343950D+02

 The electronic state is 2-SG.
 Alpha  occ. eigenvalues --   -2.61826  -1.81728  -1.51753  -1.51753  -1.04470
 Alpha  occ. eigenvalues --   -0.63753  -0.63753  -0.47787  -0.17896
 Alpha virt. eigenvalues --    0.01034   0.01034   0.01786   0.02771   0.03768
 Alpha virt. eigenvalues --    0.03768   0.03801   0.03801   0.03863   0.04920
 Alpha virt. eigenvalues --    0.04920   0.07197   0.11117   0.11117   0.11177

 Mulliken charges and spin densities:
               1          2
     1  Sc   1.072440   1.030067
     2  O   -1.072440  -0.030067
 Sum of Mulliken charges =  -0.00000   1.00000

 Dipole moment (field-independent basis, Debye):
    X=              0.0000    Y=              0.0000    Z=             -1.2025  Tot=              1.2025
 Quadrupole moment (field-independent basis, Debye-Ang):
   XX=            -23.4792   YY=            -23.4792   ZZ=            -28.9527
   XY=              0.0000   XZ=              0.0000   YZ=              0.0000

 \\#P ROCCSD(T)=(maxcyc=150, Full, SaveAmplitudes, ReadAmplitudes)/Gen
 6\CCSD=-62.3099157\CCSD(T)=-62.3373439\RMSD=3.697e-09\PG=C*V [C*(O1Sc1
 Normal termination of Gaussian 16 at Wed Mar  7 11:43:35 2018.
