 Gaussian 16, Revision A.03,
 Gaussian 16:  ES64L-G16RevA.03 25-Dec-2016

 ----------------------------------------------------------------------
 #P ROCCSD(T)=(maxcyc=150, Full, SaveAmplitudes, ReadAmplitudes)/Gen 5d
  7f SCF=(maxcycles=300) Integral(NoXCTest) MaxDisk=500GB Pop=Regular P
 seudo=Read Guess=Read IOp(5/15=2)
 ----------------------------------------------------------------------

 ---
 ScO
 ---
 Symbolic Z-matrix:
 Charge =  0 Multiplicity = 2

                         Standard orientation:
 ---------------------------------------------------------------------
 Center     Atomic      Atomic             Coordinates (Angstroms)
 Number     Number       Type             X           Y           Z
 ---------------------------------------------------------------------
      1         21           0        0.000000    0.000000    0.331034
      2          8           0        0.000000    0.000000   -0.868966
 ---------------------------------------------------------------------

 SCF Done:  E(ROHF) =  -61.7478534662     A.U. after   19 cycles
 E2 =    -0.6609545425D+00 EUMP2 =    -0.62408808008721D+02
 CCSD(T)
 CCSD(T)= -0.62439320126D+02

 The electronic state is 2-SG.
 Alpha  occ. eigenvalues --   -2.65897  -1.80745  -1.51211  -1.51211  -1.03630
 Alpha  occ. eigenvalues --   -0.63480  -0.63480  -0.47354  -0.17943
 Alpha virt. eigenvalues --    0.01032   0.01032   0.01789   0.02771   0.03767
 Alpha virt. eigenvalues --    0.03767   0.03801   0.03801   0.03864   0.04916
 Alpha virt. eigenvalues --    0.04916   0.07203   0.11134   0.11134   0.11189

 Mulliken charges and spin densities:
               1          2
     1  Sc   1.061050   1.029807
     2  O   -1.061050  -0.029807
 Sum of Mulliken charges =  -0.00000   1.00000

 Dipole moment (field-independent basis, Debye):
    X=              0.0000    Y=              0.0000    Z=             -1.1877  Tot=              1.1877
 Quadrupole moment (field-independent basis, Debye-Ang):
   XX=            -23.4178   YY=            -23.4178   ZZ=            -29.0001
   XY=              0.0000   XZ=              0.0000   YZ=              0.0000

 \\#P ROCCSD(T)=(maxcyc=150, Full, SaveAmplitudes, ReadAmplitudes)/Gen
 \CCSD=-62.4118013\CCSD(T)=-62.4393201\RMSD=6.916e-10\PG=C*V [C*(O1Sc1)
 Normal termination of Gaussian 16 at Wed Feb 28 18:57:29 2018.
