 Gaussian 16, Revision A.03,
 Gaussian 16:  ES64L-G16RevA.03 25-Dec-2016

 ----------------------------------------------------------------------
 #P ROCCSD(T)=(maxcyc=150, Full, SaveAmplitudes, ReadAmplitudes)/Gen 5d
  7f SCF=(maxcycles=300) Integral(NoXCTest) MaxDisk=500GB Pop=Regular P
 seudo=Read Guess=Read
 ----------------------------------------------------------------------

 ---
 CrO
 ---
 Symbolic Z-matrix:
 Charge =  0 Multiplicity = 5

                         Standard orientation:
 ---------------------------------------------------------------------
 Center     Atomic      Atomic             Coordinates (Angstroms)
 Number     Number       Type             X           Y           Z
 ---------------------------------------------------------------------
      1         24           0        0.000000    0.000000    0.425000
      2          8           0        0.000000    0.000000   -1.275000
 ---------------------------------------------------------------------

 SCF Done:  E(ROHF) =  -101.851265082     A.U. after   27 cycles
 E2 =    -0.8985006097D+00 EUMP2 =    -0.10274976569130D+03
 CCSD(T)
 CCSD(T)= -0.10279154951D+03

 Unable to determine electronic state:  an orbital has unidentified symmetry.
 Alpha  occ. eigenvalues --   -3.74502  -2.50374  -2.45739  -2.44527  -1.12115
 Alpha  occ. eigenvalues --   -0.56076  -0.55881  -0.54174  -0.49568  -0.36780
 Alpha  occ. eigenvalues --   -0.34008  -0.32862
 Alpha virt. eigenvalues --   -0.03352   0.00773   0.01380   0.01751   0.03131
 Alpha virt. eigenvalues --    0.04579   0.05256   0.05257   0.05678   0.05965
 Alpha virt. eigenvalues --    0.06088   0.06637   0.11184   0.11474   0.13554

 Mulliken charges and spin densities:
               1          2
     1  Cr   1.116883   3.918079
     2  O   -1.116883   0.081921
 Sum of Mulliken charges =  -0.00000   4.00000

 Dipole moment (field-independent basis, Debye):
    X=              0.0000    Y=              0.0000    Z=              8.8038  Tot=              8.8038
 Quadrupole moment (field-independent basis, Debye-Ang):
   XX=            -19.7748   YY=            -18.7440   ZZ=            -23.1285
   XY=              0.0000   XZ=              0.0000   YZ=              0.0000

 \\#P ROCCSD(T)=(maxcyc=150, Full, SaveAmplitudes, ReadAmplitudes)/Gen
 MP2-0=-102.7497657\CCSD=-102.7396274\CCSD(T)=-102.7915495\RMSD=4.223e-
 Normal termination of Gaussian 16 at Sat Mar 10 09:55:23 2018.
