 Gaussian 16, Revision A.03,
 Gaussian 16:  ES64L-G16RevA.03 25-Dec-2016

 ----------------------------------------------------------------------
 #P ROCCSD(T)=(maxcyc=150, Window=(7,0), SaveAmplitudes, ReadAmplitudes
 )/Gen 5d 7f SCF=(maxcycles=300) Integral(NoXCTest, DKHSO) MaxDisk=500G
 B Pop=Regular Guess=Read IOp(5/15=2)
 ----------------------------------------------------------------------

 ---
 MnO
 ---
 Symbolic Z-matrix:
 Charge =  0 Multiplicity = 6

                         Standard orientation:
 ---------------------------------------------------------------------
 Center     Atomic      Atomic             Coordinates (Angstroms)
 Number     Number       Type             X           Y           Z
 ---------------------------------------------------------------------
      1         25           0        0.000000    0.000000    0.460606
      2          8           0        0.000000    0.000000   -1.439394
 ---------------------------------------------------------------------

 SCF Done:  E(ROHF) =  -1232.21138907     A.U. after   30 cycles
 E2 =    -0.8748087178D+00 EUMP2 =    -0.12330861977872D+04
 CCSD(T)
 CCSD(T)= -0.12331044874D+04

 The electronic state is 6-SG.
 Alpha  occ. eigenvalues -- -242.52027 -29.62038 -24.97654 -24.97654 -24.97277
 Alpha  occ. eigenvalues --  -20.46556  -4.10537  -2.76048  -2.76048  -2.75522
 Alpha  occ. eigenvalues --   -1.09129  -0.65737  -0.65737  -0.65643  -0.65643
 Alpha  occ. eigenvalues --   -0.63079  -0.34793  -0.34793  -0.32293
 Alpha virt. eigenvalues --   -0.05245   0.01311   0.01311   0.01641   0.03801
 Alpha virt. eigenvalues --    0.06264   0.06264   0.08242   0.08316   0.08316
 Alpha virt. eigenvalues --    0.09308   0.09308   0.12709   0.13906   0.22514

 Mulliken charges and spin densities:
               1          2
     1  Mn   1.065183   4.954726
     2  O   -1.065183   0.045274
 Sum of Mulliken charges =  -0.00000   5.00000

 Dipole moment (field-independent basis, Debye):
    X=              0.0000    Y=              0.0000    Z=              9.2282  Tot=              9.2282
 Quadrupole moment (field-independent basis, Debye-Ang):
   XX=            -19.6693   YY=            -19.6693   ZZ=            -25.5248
   XY=              0.0000   XZ=              0.0000   YZ=              0.0000

 1\1\GINC-C502-081\SP\ROCCSD(T)-RW\Gen\Mn1O1(6)\AANNABE\14-Mar-2018\0\\
 #P ROCCSD(T)=(maxcyc=150, Window=(7,0), SaveAmplitudes, ReadAmplitudes
 )/Gen 5d 7f SCF=(maxcycles=300) Integral(NoXCTest, DKHSO) MaxDisk=500G
 B Pop=Regular Guess=Read IOp(5/15=2)\\MnO\\0,6\Mn,0,0.,0.,0.\O,0,0.,0.
 ,1.9\\Version=ES64L-G16RevA.03\State=6-SG\HF=-1232.2113891\MP2=-1233.0
 861978\MP3=-1233.0279994\PUHF=-1232.2113891\PMP2-0=-1233.0861978\MP4SD
 Q=-1233.0752903\CCSD=-1233.0659\CCSD(T)=-1233.1044874\RMSD=7.508e-09\P
 G=C*V [C*(O1Mn1)]\\@

 Normal termination of Gaussian 16 at Wed Mar 14 14:14:01 2018.
