 Gaussian 16, Revision A.03,
 Gaussian 16:  ES64L-G16RevA.03 25-Dec-2016

 ----------------------------------------------------------------------
 #P ROCCSD(T)=(maxcyc=100, Full)/Gen SCF=(maxcycle=400, symm) Pseudo=Re
 ad Integral(NoXCTest) Pop=Regular MaxDisk=500GB Guess=Permute IOp(5/15
 =2)
 ----------------------------------------------------------------------

 ---
 FeH
 ---
 Symbolic Z-matrix:
 Charge =  0 Multiplicity = 4

                         Standard orientation:
 ---------------------------------------------------------------------
 Center     Atomic      Atomic             Coordinates (Angstroms)
 Number     Number       Type             X           Y           Z
 ---------------------------------------------------------------------
      1         26           0        0.000000    0.000000    0.051852
      2          1           0        0.000000    0.000000   -1.348148
 ---------------------------------------------------------------------

 SCF Done:  E(ROHF) =  -123.579633391     A.U. after   34 cycles
 E2 =    -0.8330122686D+00 EUMP2 =    -0.12441264565927D+03
 CCSD(T)
 CCSD(T)= -0.12441124954D+03

 Unable to determine electronic state:  an orbital has unidentified symmetry.
 Alpha  occ. eigenvalues --   -4.20011  -2.78528  -2.77316  -2.77316  -0.52198
 Alpha  occ. eigenvalues --   -0.52198  -0.50649  -0.48487  -0.45585  -0.31299
 Alpha virt. eigenvalues --   -0.00096   0.02169   0.02169   0.02476   0.03613
 Alpha virt. eigenvalues --    0.05831   0.06256   0.06266   0.06307   0.06307
 Alpha virt. eigenvalues --    0.07254   0.07254   0.08369   0.12971   0.17113

 Mulliken charges and spin densities:
               1          2
     1  Fe   0.294511   2.993787
     2  H   -0.294511   0.006213
 Sum of Mulliken charges =  -0.00000   3.00000

 Dipole moment (field-independent basis, Debye):
    X=              0.0000    Y=              0.0000    Z=              3.7564  Tot=              3.7564
 Quadrupole moment (field-independent basis, Debye-Ang):
   XX=            -16.0720   YY=            -16.0720   ZZ=            -16.3250
   XY=              0.0000   XZ=              0.0000   YZ=              0.0000

 \\#P ROCCSD(T)=(maxcyc=100, Full)/Gen SCF=(maxcycle=400, symm) Pseudo=
 3798765\CCSD(T)=-124.4112495\RMSD=3.058e-09\PG=C*V [C*(H1Fe1)]\\@
 Normal termination of Gaussian 16 at Mon Feb 12 22:41:26 2018.
