 Gaussian 16, Revision A.03,
 Gaussian 16:  ES64L-G16RevA.03 25-Dec-2016

 ----------------------------------------------------------------------
 #P ROCCSD(T)=(maxcyc=100, Full)/Gen SCF=(maxcycle=400, symm) Pseudo=Re
 ad Integral(NoXCTest) Pop=Regular MaxDisk=500GB Guess=Permute IOp(5/15
 =2)
 ----------------------------------------------------------------------

 ---
 FeH
 ---
 Symbolic Z-matrix:
 Charge =  0 Multiplicity = 4

                         Standard orientation:
 ---------------------------------------------------------------------
 Center     Atomic      Atomic             Coordinates (Angstroms)
 Number     Number       Type             X           Y           Z
 ---------------------------------------------------------------------
      1         26           0        0.000000    0.000000    0.051852
      2          1           0        0.000000    0.000000   -1.348148
 ---------------------------------------------------------------------

 SCF Done:  E(ROHF) =  -123.577958036     A.U. after   27 cycles
 E2 =    -0.7833968739D+00 EUMP2 =    -0.12436135491006D+03
 CCSD(T)
 CCSD(T)= -0.12436419200D+03

 Unable to determine electronic state:  an orbital has unidentified symmetry.
 Alpha  occ. eigenvalues --   -4.20048  -2.78560  -2.77346  -2.77346  -0.52203
 Alpha  occ. eigenvalues --   -0.52203  -0.50650  -0.48479  -0.45581  -0.31296
 Alpha virt. eigenvalues --   -0.00035   0.02455   0.02455   0.03037   0.04418
 Alpha virt. eigenvalues --    0.08324   0.08324   0.09608   0.10300   0.10338
 Alpha virt. eigenvalues --    0.10338   0.10338   0.10581   0.16876   0.24459

 Mulliken charges and spin densities:
               1          2
     1  Fe   0.404012   2.994207
     2  H   -0.404012   0.005793
 Sum of Mulliken charges =  -0.00000   3.00000

 Dipole moment (field-independent basis, Debye):
    X=              0.0000    Y=              0.0000    Z=              3.7596  Tot=              3.7596
 Quadrupole moment (field-independent basis, Debye-Ang):
   XX=            -16.0876   YY=            -16.0876   ZZ=            -16.3174
   XY=              0.0000   XZ=              0.0000   YZ=              0.0000

 \\#P ROCCSD(T)=(maxcyc=100, Full)/Gen SCF=(maxcycle=400, symm) Pseudo=
 48853\CCSD(T)=-124.364192\RMSD=4.508e-09\PG=C*V [C*(H1Fe1)]\\@
 Normal termination of Gaussian 16 at Mon Feb 12 20:23:20 2018.
