 Gaussian 16, Revision A.03,
 Gaussian 16:  ES64L-G16RevA.03 25-Dec-2016

 ----------------------------------------------------------------------
 #P ROCCSD(T)=(maxcyc=100, Full)/Gen SCF=(maxcycle=400, symm) Pseudo=Re
 ad Integral(NoXCTest) Pop=Regular MaxDisk=500GB Guess=Permute IOp(5/15
 =2)
 ----------------------------------------------------------------------

 ---
 FeH
 ---
 Symbolic Z-matrix:
 Charge =  0 Multiplicity = 4

                         Standard orientation:
 ---------------------------------------------------------------------
 Center     Atomic      Atomic             Coordinates (Angstroms)
 Number     Number       Type             X           Y           Z
 ---------------------------------------------------------------------
      1         26           0        0.000000    0.000000    0.051852
      2          1           0        0.000000    0.000000   -1.348148
 ---------------------------------------------------------------------

 SCF Done:  E(ROHF) =  -123.579080496     A.U. after   29 cycles
 E2 =    -0.8188327006D+00 EUMP2 =    -0.12439791319653D+03
 CCSD(T)
 CCSD(T)= -0.12439859671D+03

 Unable to determine electronic state:  partially filled degenerate orbitals.
 Alpha  occ. eigenvalues --   -4.19994  -2.78533  -2.77322  -2.77322  -0.52202
 Alpha  occ. eigenvalues --   -0.52202  -0.50652  -0.48485  -0.45583  -0.31299
 Alpha virt. eigenvalues --   -0.00059   0.02234   0.02234   0.02772   0.04193
 Alpha virt. eigenvalues --    0.06239   0.06830   0.06830   0.06831   0.06844
 Alpha virt. eigenvalues --    0.07594   0.07594   0.09549   0.16848   0.17909

 Mulliken charges and spin densities:
               1          2
     1  Fe   0.314205   2.994492
     2  H   -0.314205   0.005508
 Sum of Mulliken charges =  -0.00000   3.00000

 Dipole moment (field-independent basis, Debye):
    X=              0.0000    Y=              0.0000    Z=              3.7568  Tot=              3.7568
 Quadrupole moment (field-independent basis, Debye-Ang):
   XX=            -16.0740   YY=            -16.0740   ZZ=            -16.3236
   XY=              0.0000   XZ=              0.0000   YZ=              0.0000

 \\#P ROCCSD(T)=(maxcyc=100, Full)/Gen SCF=(maxcycle=400, symm) Pseudo=
 3677556\CCSD(T)=-124.3985967\RMSD=6.345e-09\PG=C*V [C*(H1Fe1)]\\@
 Normal termination of Gaussian 16 at Mon Feb 12 21:00:46 2018.
