 Gaussian 16, Revision A.03,
 Gaussian 16:  ES64L-G16RevA.03 25-Dec-2016

 ----------------------------------------------------------------------
 #P ROCCSD(T)=(maxcyc=150, Full)/Gen 5d 7f SCF=(maxcycles=300) Integral
 (NoXCTest, DKHSO) MaxDisk=500GB Pop=Regular IOp(5/15=2) Guess=Read
 ----------------------------------------------------------------------

 ---
 CrH
 ---
 Symbolic Z-matrix:
 Charge =  0 Multiplicity = 6

                         Standard orientation:
 ---------------------------------------------------------------------
 Center     Atomic      Atomic             Coordinates (Angstroms)
 Number     Number       Type             X           Y           Z
 ---------------------------------------------------------------------
      1         24           0        0.000000    0.000000    0.068000
      2          1           0        0.000000    0.000000   -1.632000
 ---------------------------------------------------------------------

 SCF Done:  E(ROHF) =  -1050.20522740     A.U. after   23 cycles
 E2 =    -0.9754040606D+00 EUMP2 =    -0.10511806314626D+04
 CCSD(T)
 CCSD(T)= -0.10512150343D+04

 The electronic state is 6-SG.
 Alpha  occ. eigenvalues -- -222.20318 -26.79598 -22.43005 -22.43005 -22.42974
 Alpha  occ. eigenvalues --   -3.66909  -2.42369  -2.42369  -2.38340  -0.54439
 Alpha  occ. eigenvalues --   -0.54439  -0.51257  -0.51257  -0.40731  -0.25996
 Alpha virt. eigenvalues --    0.01224   0.01224   0.01864   0.02244   0.04380
 Alpha virt. eigenvalues --    0.04812   0.04812   0.04943   0.04943   0.05226
 Alpha virt. eigenvalues --    0.05226   0.06387   0.08556   0.11485   0.15139

 Mulliken charges and spin densities:
               1          2
     1  Cr   0.371139   4.973678
     2  H   -0.371139   0.026322
 Sum of Mulliken charges =  -0.00000   5.00000

 Dipole moment (field-independent basis, Debye):
    X=             -0.0000    Y=             -0.0000    Z=              2.1436  Tot=              2.1436
 Quadrupole moment (field-independent basis, Debye-Ang):
   XX=            -17.3287   YY=            -17.3287   ZZ=            -24.5599
   XY=              0.0000   XZ=              0.0000   YZ=             -0.0000

 \\#P ROCCSD(T)=(maxcyc=150, Full)/Gen 5d 7f SCF=(maxcycles=300) Integr
 Normal termination of Gaussian 16 at Wed Feb 14 05:03:26 2018.
