 Gaussian 16, Revision A.03,
 Gaussian 16:  ES64L-G16RevA.03 25-Dec-2016

 ----------------------------------------------------------------------
 #P ROCCSD(T)=(maxcyc=150, Full)/Gen 5d 7f SCF=(maxcycles=300, NoVarAcc
 , VShift=300) MaxDisk=100GB Pop=Regular Pseudo=Read Guess=Read IOp(5/1
 5=2)
 ----------------------------------------------------------------------

 --
 Cr
 --
 Symbolic Z-matrix:
 Charge =  0 Multiplicity = 7

                         Standard orientation:
 ---------------------------------------------------------------------
 Center     Atomic      Atomic             Coordinates (Angstroms)
 Number     Number       Type             X           Y           Z
 ---------------------------------------------------------------------
      1         24           0        0.000000    0.000000    0.000000
 ---------------------------------------------------------------------

 SCF Done:  E(ROHF) =  -86.1889181717     A.U. after   26 cycles
 E2 =    -0.5254358517D+00 EUMP2 =    -0.86714354023373D+02
 CCSD(T)
 CCSD(T)= -0.86725848530D+02

 The electronic state is 7-A1G.
 Alpha  occ. eigenvalues --   -3.57934  -2.32479  -2.32479  -2.32479  -0.36830
 Alpha  occ. eigenvalues --   -0.36830  -0.36830  -0.36830  -0.36830  -0.22647
 Alpha virt. eigenvalues --    0.01794   0.01794   0.01794   0.03168   0.06511
 Alpha virt. eigenvalues --    0.06511   0.06511   0.07936   0.07936   0.07936
 Alpha virt. eigenvalues --    0.07936   0.07936   0.21062   0.23167   0.23167

 Mulliken charges and spin densities:
               1          2
     1  Cr  -0.000000   6.000000
 Sum of Mulliken charges =  -0.00000   6.00000

 Dipole moment (field-independent basis, Debye):
    X=              0.0000    Y=              0.0000    Z=              0.0000  Tot=              0.0000
 Quadrupole moment (field-independent basis, Debye-Ang):
   XX=            -16.4436   YY=            -16.4436   ZZ=            -16.4436
   XY=             -0.0000   XZ=             -0.0000   YZ=              0.0000

 1\1\GINC-C452-094\SP\ROCCSD(T)-Full\Gen\Cr1(7)\AANNABE\13-Mar-2018\0\\
 #P ROCCSD(T)=(maxcyc=150, Full)/Gen 5d 7f SCF=(maxcycles=300, NoVarAcc
 , VShift=300) MaxDisk=100GB Pop=Regular Pseudo=Read Guess=Read IOp(5/1
 5=2)\\Cr\\0,7\Cr,0,0.,0.,0.\\Version=ES64L-G16RevA.03\State=7-A1G\HF=-
 86.1889182\MP2=-86.714354\MP3=-86.7069418\PUHF=-86.1889182\PMP2-0=-86.
 714354\MP4SDQ=-86.7108841\CCSD=-86.7098605\CCSD(T)=-86.7258485\RMSD=7.
 032e-09\PG=OH [O(Cr1)]\\@

 Normal termination of Gaussian 16 at Tue Mar 13 11:57:50 2018.
