 Gaussian 16, Revision A.03,
 Gaussian 16:  ES64L-G16RevA.03 25-Dec-2016

 ----------------------------------------------------------------------
 #P ROCCSD(T)=(maxcyc=150, Full, SaveAmplitudes, ReadAmplitudes)/Gen 5d
  7f SCF=(maxcycles=300) Integral(NoXCTest) MaxDisk=500GB Pop=Regular P
 seudo=Read Guess=Read
 ----------------------------------------------------------------------

 ---
 CrO
 ---
 Symbolic Z-matrix:
 Charge =  0 Multiplicity = 5

                         Standard orientation:
 ---------------------------------------------------------------------
 Center     Atomic      Atomic             Coordinates (Angstroms)
 Number     Number       Type             X           Y           Z
 ---------------------------------------------------------------------
      1         24           0        0.000000    0.000000    0.325000
      2          8           0        0.000000    0.000000   -0.975000
 ---------------------------------------------------------------------

 SCF Done:  E(ROHF) =  -101.707962109     A.U. after   22 cycles
 E2 =    -0.9182824298D+00 EUMP2 =    -0.10262624453866D+03
 CCSD(T)
 CCSD(T)= -0.10263624751D+03

 Unable to determine electronic state:  an orbital has unidentified symmetry.
 Alpha  occ. eigenvalues --   -3.72158  -2.48043  -2.46796  -2.43835  -1.25553
 Alpha  occ. eigenvalues --   -0.69058  -0.60112  -0.59758  -0.51411  -0.51046
 Alpha  occ. eigenvalues --   -0.35371  -0.27084
 Alpha virt. eigenvalues --    0.01279   0.01966   0.02288   0.02633   0.04741
 Alpha virt. eigenvalues --    0.05014   0.05421   0.05421   0.05518   0.05683
 Alpha virt. eigenvalues --    0.07607   0.08045   0.10338   0.13850   0.14708

 Mulliken charges and spin densities:
               1          2
     1  Cr   0.845611   3.852800
     2  O   -0.845611   0.147200
 Sum of Mulliken charges =  -0.00000   4.00000

 Dipole moment (field-independent basis, Debye):
    X=              0.0000    Y=              0.0000    Z=              1.7143  Tot=              1.7143
 Quadrupole moment (field-independent basis, Debye-Ang):
   XX=            -21.5173   YY=            -19.8096   ZZ=            -23.6382
   XY=              0.0000   XZ=              0.0000   YZ=              0.0000

 \\#P ROCCSD(T)=(maxcyc=150, Full, SaveAmplitudes, ReadAmplitudes)/Gen
 MP2-0=-102.6262445\CCSD=-102.5928548\CCSD(T)=-102.6362475\RMSD=5.334e-
 Normal termination of Gaussian 16 at Sat Mar 10 06:05:29 2018.
