 Gaussian 16, Revision A.03,
 Gaussian 16:  ES64L-G16RevA.03 25-Dec-2016

 ----------------------------------------------------------------------
 #P ROCCSD(T)=(maxcyc=150, Full)/Gen 5d 7f SCF=(maxcycles=300) Integral
 (NoXCTest) MaxDisk=500GB Pop=Regular Pseudo=Read IOp(5/15=2) Guess=Rea
 d
 ----------------------------------------------------------------------

 ---
 ScH
 ---
 Symbolic Z-matrix:
 Charge =  0 Multiplicity = 1

                         Standard orientation:
 ---------------------------------------------------------------------
 Center     Atomic      Atomic             Coordinates (Angstroms)
 Number     Number       Type             X           Y           Z
 ---------------------------------------------------------------------
      1         21           0        0.000000    0.000000    0.090909
      2          1           0        0.000000    0.000000   -1.909091
 ---------------------------------------------------------------------

 SCF Done:  E(ROHF) =  -46.7896860170     A.U. after   12 cycles
 E2 =    -0.4044967897D+00 EUMP2 =    -0.47194182806623D+02
 CCSD(T)
 CCSD(T)= -0.47241527331D+02

 The electronic state is 1-SG.
 Alpha  occ. eigenvalues --   -2.74991  -1.68307  -1.68307  -1.68110  -0.38031
 Alpha  occ. eigenvalues --   -0.24062
 Alpha virt. eigenvalues --    0.01044   0.01044   0.01367   0.02267   0.03586
 Alpha virt. eigenvalues --    0.03785   0.03785   0.03942   0.03942   0.04379
 Alpha virt. eigenvalues --    0.04379   0.04439   0.07559   0.07559   0.08569

 Mulliken charges and spin densities:
               1          2
     1  Sc   0.316026   0.000000
     2  H   -0.316026   0.000000
 Sum of Mulliken charges =  -0.00000   0.00000

 Dipole moment (field-independent basis, Debye):
    X=              0.0000    Y=              0.0000    Z=              2.1792  Tot=              2.1792
 Quadrupole moment (field-independent basis, Debye-Ang):
   XX=            -22.7826   YY=            -22.7826   ZZ=            -28.3102
   XY=              0.0000   XZ=              0.0000   YZ=              0.0000

 P ROCCSD(T)=(maxcyc=150, Full)/Gen 5d 7f SCF=(maxcycles=300) Integral(
 2-0=-47.1941828\MP4SDQ=-47.2224887\CCSD=-47.2226725\CCSD(T)=-47.241527
 Normal termination of Gaussian 16 at Wed Feb 14 08:33:59 2018.
