 Gaussian 16, Revision A.03,
 Gaussian 16:  ES64L-G16RevA.03 25-Dec-2016

 ----------------------------------------------------------------------
 #P ROCCSD(T)=(maxcyc=150, Full, SaveAmplitudes, ReadAmplitudes)/Gen 5d
  7f SCF=(maxcycles=300) Integral(NoXCTest) MaxDisk=500GB Pop=Regular P
 seudo=Read Guess=Read
 ----------------------------------------------------------------------

 ---
 TiO
 ---
 Symbolic Z-matrix:
 Charge =  0 Multiplicity = 3

                         Standard orientation:
 ---------------------------------------------------------------------
 Center     Atomic      Atomic             Coordinates (Angstroms)
 Number     Number       Type             X           Y           Z
 ---------------------------------------------------------------------
      1         22           0        0.000000    0.000000    0.346667
      2          8           0        0.000000    0.000000   -0.953333
 ---------------------------------------------------------------------

 SCF Done:  E(ROHF) =  -73.1416184068     A.U. after   28 cycles
 E2 =    -0.7658587535D+00 EUMP2 =    -0.73907477160301D+02
 CCSD(T)
 CCSD(T)= -0.73929726820D+02

 Unable to determine electronic state:  an orbital has unidentified symmetry.
 Alpha  occ. eigenvalues --   -2.93552  -1.96206  -1.82700  -1.82700  -1.13841
 Alpha  occ. eigenvalues --   -0.59336  -0.59336  -0.52606  -0.35617  -0.21587
 Alpha virt. eigenvalues --    0.01137   0.01137   0.02112   0.02340   0.03785
 Alpha virt. eigenvalues --    0.03785   0.03806   0.03841   0.03860   0.04638
 Alpha virt. eigenvalues --    0.04638   0.07233   0.10366   0.10641   0.11229

 Mulliken charges and spin densities:
               1          2
     1  Ti   0.922979   1.998136
     2  O   -0.922979   0.001864
 Sum of Mulliken charges =  -0.00000   2.00000

 Dipole moment (field-independent basis, Debye):
    X=              0.0000    Y=              0.0000    Z=              0.6043  Tot=              0.6043
 Quadrupole moment (field-independent basis, Debye-Ang):
   XX=            -22.0938   YY=            -22.0938   ZZ=            -27.0963
   XY=              0.0000   XZ=              0.0000   YZ=              0.0000

 \\#P ROCCSD(T)=(maxcyc=150, Full, SaveAmplitudes, ReadAmplitudes)/Gen
 -0=-73.9074772\CCSD=-73.8936212\CCSD(T)=-73.9297268\RMSD=4.921e-09\PG=
 Normal termination of Gaussian 16 at Sat Mar 10 01:48:19 2018.
