 Gaussian 16, Revision A.03,
 Gaussian 16:  ES64L-G16RevA.03 25-Dec-2016

 ----------------------------------------------------------------------
 #P ROCCSD(T)=(MaxCyc=150, Full)/Gen SCF=(maxcycle=400, vshift=200) Pse
 udo=Read Integral(NoXCTest) Pop=Regular MaxDisk=500GB Guess=Read IOp(5
 /15=2)
 ----------------------------------------------------------------------

 ---
 FeH
 ---
 Symbolic Z-matrix:
 Charge =  0 Multiplicity = 4

                         Standard orientation:
 ---------------------------------------------------------------------
 Center     Atomic      Atomic             Coordinates (Angstroms)
 Number     Number       Type             X           Y           Z
 ---------------------------------------------------------------------
      1         26           0        0.000000    0.000000    0.059259
      2          1           0        0.000000    0.000000   -1.540741
 ---------------------------------------------------------------------

 SCF Done:  E(ROHF) =  -123.118284517     A.U. after   18 cycles
 E2 =    -0.8159669139D+00 EUMP2 =    -0.12393425143102D+03
 CCSD(T)
 CCSD(T)= -0.12393188473D+03

 Unable to determine electronic state:  an orbital has unidentified symmetry.
 Alpha  occ. eigenvalues --   -4.24294  -2.77529  -2.76927  -2.76927  -0.49885
 Alpha  occ. eigenvalues --   -0.49885  -0.49166  -0.44739  -0.44248  -0.31875
 Alpha virt. eigenvalues --   -0.00478   0.02133   0.02133   0.02620   0.03376
 Alpha virt. eigenvalues --    0.05776   0.06207   0.06218   0.06347   0.06347
 Alpha virt. eigenvalues --    0.07392   0.07392   0.08641   0.12964   0.16606

 Mulliken charges and spin densities:
               1          2
     1  Fe   0.277722   2.995793
     2  H   -0.277722   0.004207
 Sum of Mulliken charges =  -0.00000   3.00000

 Dipole moment (field-independent basis, Debye):
    X=              0.0000    Y=              0.0000    Z=              4.4234  Tot=              4.4234
 Quadrupole moment (field-independent basis, Debye-Ang):
   XX=            -15.6230   YY=            -15.6230   ZZ=            -17.5517
   XY=              0.0000   XZ=              0.0000   YZ=              0.0000

 \\#P ROCCSD(T)=(MaxCyc=150, Full)/Gen SCF=(maxcycle=400, vshift=200) P
 \PMP2-0=-123.9342514\MP4SDQ=-123.9103283\CCSD=-123.9017745\CCSD(T)=-12
 Normal termination of Gaussian 16 at Mon Apr 23 00:03:11 2018.
