 Gaussian 16, Revision A.03,
 Gaussian 16:  ES64L-G16RevA.03 25-Dec-2016

 ----------------------------------------------------------------------
 #P ROCCSD(T)=(MaxCyc=150, Full)/Gen SCF=(maxcycle=400, vshift=200) Pse
 udo=Read Integral(NoXCTest) Pop=Regular MaxDisk=500GB Guess=Read IOp(5
 /15=2)
 ----------------------------------------------------------------------

 ---
 FeH
 ---
 Symbolic Z-matrix:
 Charge =  0 Multiplicity = 4

                         Standard orientation:
 ---------------------------------------------------------------------
 Center     Atomic      Atomic             Coordinates (Angstroms)
 Number     Number       Type             X           Y           Z
 ---------------------------------------------------------------------
      1         26           0        0.000000    0.000000    0.059259
      2          1           0        0.000000    0.000000   -1.540741
 ---------------------------------------------------------------------

 SCF Done:  E(ROHF) =  -123.117002519     A.U. after   24 cycles
 E2 =    -0.7660337433D+00 EUMP2 =    -0.12388303626191D+03
 CCSD(T)
 CCSD(T)= -0.12388490513D+03

 Unable to determine electronic state:  an orbital has unidentified symmetry.
 Alpha  occ. eigenvalues --   -4.24299  -2.77543  -2.76938  -2.76938  -0.49887
 Alpha  occ. eigenvalues --   -0.49887  -0.49167  -0.44732  -0.44242  -0.31873
 Alpha virt. eigenvalues --   -0.00434   0.02437   0.02437   0.03218   0.04179
 Alpha virt. eigenvalues --    0.08460   0.08460   0.09575   0.10217   0.10257
 Alpha virt. eigenvalues --    0.10400   0.10400   0.10774   0.17167   0.23719

 Mulliken charges and spin densities:
               1          2
     1  Fe   0.427041   2.997816
     2  H   -0.427041   0.002184
 Sum of Mulliken charges =   0.00000   3.00000

 Dipole moment (field-independent basis, Debye):
    X=              0.0000    Y=              0.0000    Z=              4.4292  Tot=              4.4292
 Quadrupole moment (field-independent basis, Debye-Ang):
   XX=            -15.6377   YY=            -15.6377   ZZ=            -17.5393
   XY=              0.0000   XZ=              0.0000   YZ=              0.0000

 \\#P ROCCSD(T)=(MaxCyc=150, Full)/Gen SCF=(maxcycle=400, vshift=200) P
 \PMP2-0=-123.8830363\MP4SDQ=-123.8653933\CCSD=-123.8571543\CCSD(T)=-12
 Normal termination of Gaussian 16 at Sun Apr 22 23:02:55 2018.
