 Gaussian 16, Revision A.03,
 Gaussian 16:  ES64L-G16RevA.03 25-Dec-2016

 ----------------------------------------------------------------------
 #P ROCCSD(T)=(MaxCyc=150, Full)/Gen SCF=(maxcycle=400, vshift=200) Pse
 udo=Read Integral(NoXCTest) Pop=Regular MaxDisk=500GB Guess=Read IOp(5
 /15=2)
 ----------------------------------------------------------------------

 ---
 FeH
 ---
 Symbolic Z-matrix:
 Charge =  0 Multiplicity = 4

                         Standard orientation:
 ---------------------------------------------------------------------
 Center     Atomic      Atomic             Coordinates (Angstroms)
 Number     Number       Type             X           Y           Z
 ---------------------------------------------------------------------
      1         26           0        0.000000    0.000000    0.059259
      2          1           0        0.000000    0.000000   -1.540741
 ---------------------------------------------------------------------

 SCF Done:  E(ROHF) =  -123.118081032     A.U. after   29 cycles
 E2 =    -0.8017089251D+00 EUMP2 =    -0.12391978995685D+03
 CCSD(T)
 CCSD(T)= -0.12391950506D+03

 Unable to determine electronic state:  partially filled degenerate orbitals.
 Alpha  occ. eigenvalues --   -4.24297  -2.77534  -2.76931  -2.76931  -0.49888
 Alpha  occ. eigenvalues --   -0.49888  -0.49169  -0.44737  -0.44246  -0.31875
 Alpha virt. eigenvalues --   -0.00451   0.02200   0.02200   0.02940   0.03911
 Alpha virt. eigenvalues --    0.06229   0.06777   0.06791   0.06863   0.06863
 Alpha virt. eigenvalues --    0.07747   0.07747   0.09880   0.16385   0.17904

 Mulliken charges and spin densities:
               1          2
     1  Fe   0.316221   2.996230
     2  H   -0.316221   0.003770
 Sum of Mulliken charges =  -0.00000   3.00000

 Dipole moment (field-independent basis, Debye):
    X=              0.0000    Y=              0.0000    Z=              4.4236  Tot=              4.4236
 Quadrupole moment (field-independent basis, Debye-Ang):
   XX=            -15.6255   YY=            -15.6255   ZZ=            -17.5487
   XY=              0.0000   XZ=              0.0000   YZ=              0.0000

 \\#P ROCCSD(T)=(MaxCyc=150, Full)/Gen SCF=(maxcycle=400, vshift=200) P
 2-0=-123.91979\MP4SDQ=-123.8985124\CCSD=-123.8900131\CCSD(T)=-123.9195
 Normal termination of Gaussian 16 at Sun Apr 22 23:20:36 2018.
