 Gaussian 16, Revision A.03,
 Gaussian 16:  ES64L-G16RevA.03 25-Dec-2016

 ----------------------------------------------------------------------
 #P ROCCSD(T)=(maxcyc=150, Full, SaveAmplitudes, ReadAmplitudes)/Gen 5d
  7f SCF=(maxcycles=300, VShift=400) Integral(NoXCTest) MaxDisk=500GB P
 op=Full Pseudo=Read Guess=Read
 ----------------------------------------------------------------------

 ---
 MnH
 ---
 Symbolic Z-matrix:
 Charge =  0 Multiplicity = 7

                         Standard orientation:
 ---------------------------------------------------------------------
 Center     Atomic      Atomic             Coordinates (Angstroms)
 Number     Number       Type             X           Y           Z
 ---------------------------------------------------------------------
      1         25           0        0.000000    0.000000    0.069231
      2          1           0        0.000000    0.000000   -1.730769
 ---------------------------------------------------------------------

 SCF Done:  E(ROHF) =  -104.256317134     A.U. after   29 cycles
 E2 =    -0.6015894280D+00 EUMP2 =    -0.10485790656165D+03
 CCSD(T)
 CCSD(T)= -0.10487959515D+03

 The electronic state is 7-SG.
 Alpha  occ. eigenvalues --   -4.14614  -2.77423  -2.77423  -2.77208  -0.65792
 Alpha  occ. eigenvalues --   -0.65792  -0.65308  -0.65108  -0.65108  -0.40122
 Alpha  occ. eigenvalues --   -0.26377
 Alpha virt. eigenvalues --    0.01130   0.01130   0.02173   0.02898   0.05010
 Alpha virt. eigenvalues --    0.05010   0.05624   0.05787   0.05787   0.06197
 Alpha virt. eigenvalues --    0.06197   0.09257   0.12984   0.13959   0.18050

 Mulliken charges and spin densities:
               1          2
     1  Mn   0.370129   5.952285
     2  H   -0.370129   0.047715
 Sum of Mulliken charges =  -0.00000   6.00000

 Dipole moment (field-independent basis, Debye):
    X=              0.0000    Y=              0.0000    Z=              1.6744  Tot=              1.6744
 Quadrupole moment (field-independent basis, Debye-Ang):
   XX=            -16.1937   YY=            -16.1937   ZZ=            -26.8207
   XY=              0.0000   XZ=              0.0000   YZ=              0.0000

 \\#P ROCCSD(T)=(maxcyc=150, Full, SaveAmplitudes, ReadAmplitudes)/Gen
 \PUHF=-104.2563171\PMP2-0=-104.8579066\CCSD=-104.8630597\CCSD(T)=-104.
 Normal termination of Gaussian 16 at Wed Apr  4 04:58:55 2018.
