 Gaussian 16, Revision A.03,
 Gaussian 16:  ES64L-G16RevA.03 25-Dec-2016

 ----------------------------------------------------------------------
 #P ROCCSD(T)=(MaxCyc=150, Full)/Gen SCF=(maxcycle=400, vshift=200) Pse
 udo=Read Integral(NoXCTest) Pop=Regular MaxDisk=500GB
 ----------------------------------------------------------------------

 ---
 ZnO
 ---
 Symbolic Z-matrix:
 Charge =  0 Multiplicity = 1

                         Standard orientation:
 ---------------------------------------------------------------------
 Center     Atomic      Atomic             Coordinates (Angstroms)
 Number     Number       Type             X           Y           Z
 ---------------------------------------------------------------------
      1         30           0        0.000000    0.000000    0.442105
      2          8           0        0.000000    0.000000   -1.657895
 ---------------------------------------------------------------------

 SCF Done:  E(ROHF) =  -240.881290227     A.U. after   19 cycles
 E2 =    -0.1345228853D+01 EUMP2 =    -0.24222651908009D+03
 CCSD(T)
 CCSD(T)= -0.24220093945D+03

 The electronic state is 1-SG.
 Alpha  occ. eigenvalues --   -5.89341  -3.97268  -3.97268  -3.97202  -1.17884
 Alpha  occ. eigenvalues --   -0.81469  -0.81469  -0.81448  -0.81448  -0.80925
 Alpha  occ. eigenvalues --   -0.46095  -0.46095  -0.34208
 Alpha virt. eigenvalues --   -0.03648   0.02262   0.02262   0.02654   0.03960
 Alpha virt. eigenvalues --    0.07306   0.07306   0.11483   0.16287   0.16788
 Alpha virt. eigenvalues --    0.17974   0.17974   0.18992   0.18992   0.23306

 Mulliken charges and spin densities:
               1          2
     1  Zn   0.564136   0.000000
     2  O   -0.564136   0.000000
 Sum of Mulliken charges =  -0.00000   0.00000

 Dipole moment (field-independent basis, Debye):
    X=              0.0000    Y=              0.0000    Z=              5.0478  Tot=              5.0478
 Quadrupole moment (field-independent basis, Debye-Ang):
   XX=            -19.0384   YY=            -19.0384   ZZ=            -21.9561
   XY=              0.0000   XZ=              0.0000   YZ=              0.0000

 P ROCCSD(T)=(MaxCyc=150, Full)/Gen SCF=(maxcycle=400, vshift=200) Pseu
 65191\MP4SDQ=-242.1791738\CCSD=-242.1505847\CCSD(T)=-242.2009395\RMSD=
 Normal termination of Gaussian 16 at Fri May  4 15:06:24 2018.
