 Gaussian 16, Revision A.03,
 Gaussian 16:  ES64L-G16RevA.03 25-Dec-2016

 ----------------------------------------------------------------------
 #P ROCCSD(T)=(MaxCyc=150, Full)/Gen SCF=(maxcycle=400, vshift=200) Pse
 udo=Read Integral(NoXCTest) Pop=Regular MaxDisk=500GB
 ----------------------------------------------------------------------

 ---
 ZnO
 ---
 Symbolic Z-matrix:
 Charge =  0 Multiplicity = 1

                         Standard orientation:
 ---------------------------------------------------------------------
 Center     Atomic      Atomic             Coordinates (Angstroms)
 Number     Number       Type             X           Y           Z
 ---------------------------------------------------------------------
      1         30           0        0.000000    0.000000    0.442105
      2          8           0        0.000000    0.000000   -1.657895
 ---------------------------------------------------------------------

 SCF Done:  E(ROHF) =  -240.878535897     A.U. after   19 cycles
 E2 =    -0.1278377323D+01 EUMP2 =    -0.24215691321976D+03
 CCSD(T)
 CCSD(T)= -0.24213369152D+03

 The electronic state is 1-SG.
 Alpha  occ. eigenvalues --   -5.89361  -3.97292  -3.97292  -3.97229  -1.17920
 Alpha  occ. eigenvalues --   -0.81486  -0.81486  -0.81462  -0.81462  -0.80945
 Alpha  occ. eigenvalues --   -0.46075  -0.46075  -0.34227
 Alpha virt. eigenvalues --   -0.03665   0.02444   0.02444   0.02904   0.04364
 Alpha virt. eigenvalues --    0.08319   0.08319   0.12949   0.17314   0.20834
 Alpha virt. eigenvalues --    0.21937   0.21937   0.24887   0.24887   0.30233

 Mulliken charges and spin densities:
               1          2
     1  Zn   0.584475   0.000000
     2  O   -0.584475   0.000000
 Sum of Mulliken charges =   0.00000   0.00000

 Dipole moment (field-independent basis, Debye):
    X=              0.0000    Y=              0.0000    Z=              5.0609  Tot=              5.0609
 Quadrupole moment (field-independent basis, Debye-Ang):
   XX=            -19.0499   YY=            -19.0499   ZZ=            -21.9524
   XY=              0.0000   XZ=              0.0000   YZ=              0.0000

 P ROCCSD(T)=(MaxCyc=150, Full)/Gen SCF=(maxcycle=400, vshift=200) Pseu
 69132\MP4SDQ=-242.1145914\CCSD=-242.0858571\CCSD(T)=-242.1336915\RMSD=
 Normal termination of Gaussian 16 at Fri May  4 12:48:08 2018.
