 Gaussian 16, Revision A.03,
 Gaussian 16:  ES64L-G16RevA.03 25-Dec-2016

 ----------------------------------------------------------------------
 #P ROCCSD(T)=(MaxCyc=150, Full)/Gen SCF=(maxcycle=400) Integral(DKHSO,
  NoXCTest) Pop=Regular MaxDisk=500GB Guess=Read IOp(5/15=2)
 ----------------------------------------------------------------------

 ---
 FeH
 ---
 Symbolic Z-matrix:
 Charge =  0 Multiplicity = 4

                         Standard orientation:
 ---------------------------------------------------------------------
 Center     Atomic      Atomic             Coordinates (Angstroms)
 Number     Number       Type             X           Y           Z
 ---------------------------------------------------------------------
      1         26           0        0.000000    0.000000    0.040741
      2          1           0        0.000000    0.000000   -1.059259
 ---------------------------------------------------------------------

 SCF Done:  E(ROHF) =  -1271.72243537     A.U. after   22 cycles
 E2 =    -0.1226316653D+01 EUMP2 =    -0.12729487520239D+04
 CCSD(T)
 CCSD(T)= -0.12729257639D+04

 Unable to determine electronic state:  partially filled degenerate orbitals.
 Alpha  occ. eigenvalues -- -263.58942 -32.37544 -27.44652 -27.43861 -27.43861
 Alpha  occ. eigenvalues --   -4.27766  -2.84511  -2.80841  -2.80841  -0.58906
 Alpha  occ. eigenvalues --   -0.57141  -0.57141  -0.53970  -0.49098  -0.29994
 Alpha virt. eigenvalues --    0.00702   0.02242   0.02242   0.02502   0.04813
 Alpha virt. eigenvalues --    0.06292   0.06778   0.06778   0.06867   0.06879
 Alpha virt. eigenvalues --    0.07311   0.07311   0.09069   0.17148   0.18522

 Mulliken charges and spin densities:
               1          2
     1  Fe   0.293024   2.988531
     2  H   -0.293024   0.011469
 Sum of Mulliken charges =  -0.00000   3.00000

 Dipole moment (field-independent basis, Debye):
    X=              0.0000    Y=              0.0000    Z=              2.6618  Tot=              2.6618
 Quadrupole moment (field-independent basis, Debye-Ang):
   XX=            -17.2879   YY=            -17.2879   ZZ=            -16.1526
   XY=              0.0000   XZ=              0.0000   YZ=              0.0000

 \\#P ROCCSD(T)=(MaxCyc=150, Full)/Gen SCF=(maxcycle=400) Integral(DKHS
 948752\MP4SDQ=-1272.9070469\CCSD=-1272.8942071\CCSD(T)=-1272.9257639\R
 Normal termination of Gaussian 16 at Wed Mar  7 13:04:05 2018.
