 Gaussian 16, Revision A.03,
 Gaussian 16:  ES64L-G16RevA.03 25-Dec-2016

 ----------------------------------------------------------------------
 #P ROCCSD(T)=(MaxCyc=150, Full)/Gen SCF=(maxcycle=400) Integral(DKHSO,
  NoXCTest) Pop=Regular MaxDisk=500GB Guess=Read IOp(5/15=2)
 ----------------------------------------------------------------------

 ---
 FeH
 ---
 Symbolic Z-matrix:
 Charge =  0 Multiplicity = 4

                         Standard orientation:
 ---------------------------------------------------------------------
 Center     Atomic      Atomic             Coordinates (Angstroms)
 Number     Number       Type             X           Y           Z
 ---------------------------------------------------------------------
      1         26           0        0.000000    0.000000    0.040741
      2          1           0        0.000000    0.000000   -1.059259
 ---------------------------------------------------------------------

 SCF Done:  E(ROHF) =  -1271.72274244     A.U. after   34 cycles
 E2 =    -0.1254259819D+01 EUMP2 =    -0.12729770022639D+04
 CCSD(T)
 CCSD(T)= -0.12729523994D+04

 Unable to determine electronic state:  partially filled degenerate orbitals.
 Alpha  occ. eigenvalues -- -263.58945 -32.37542 -27.44646 -27.43860 -27.43860
 Alpha  occ. eigenvalues --   -4.27764  -2.84508  -2.80839  -2.80839  -0.58908
 Alpha  occ. eigenvalues --   -0.57139  -0.57139  -0.53969  -0.49102  -0.29994
 Alpha virt. eigenvalues --    0.00629   0.02181   0.02181   0.02245   0.04104
 Alpha virt. eigenvalues --    0.05990   0.06224   0.06224   0.06292   0.06301
 Alpha virt. eigenvalues --    0.06994   0.06994   0.07987   0.12842   0.17528

 Mulliken charges and spin densities:
               1          2
     1  Fe   0.301497   2.985596
     2  H   -0.301497   0.014404
 Sum of Mulliken charges =  -0.00000   3.00000

 Dipole moment (field-independent basis, Debye):
    X=             -0.0000    Y=              0.0000    Z=              2.6619  Tot=              2.6619
 Quadrupole moment (field-independent basis, Debye-Ang):
   XX=            -17.2866   YY=            -17.2866   ZZ=            -16.1535
   XY=              0.0000   XZ=              0.0000   YZ=             -0.0000

 \\#P ROCCSD(T)=(MaxCyc=150, Full)/Gen SCF=(maxcycle=400) Integral(DKHS
 .9770023\MP4SDQ=-1272.9328826\CCSD=-1272.920241\CCSD(T)=-1272.9523994\
 Normal termination of Gaussian 16 at Fri Mar  9 05:57:32 2018.
