 Gaussian 16, Revision A.03,
 Gaussian 16:  ES64L-G16RevA.03 25-Dec-2016

 ----------------------------------------------------------------------
 #P ROCCSD(T)=(maxcyc=150, Full, SaveAmplitudes, ReadAmplitudes)/Gen 5d
  7f SCF=(maxcycles=300) Integral(NoXCTest) MaxDisk=500GB Pop=Regular P
 seudo=Read Guess=Read
 ----------------------------------------------------------------------

 ---
 MnO
 ---
 Symbolic Z-matrix:
 Charge =  0 Multiplicity = 6

                         Standard orientation:
 ---------------------------------------------------------------------
 Center     Atomic      Atomic             Coordinates (Angstroms)
 Number     Number       Type             X           Y           Z
 ---------------------------------------------------------------------
      1         25           0        0.000000    0.000000    0.460606
      2          8           0        0.000000    0.000000   -1.439394
 ---------------------------------------------------------------------

 SCF Done:  E(ROHF) =  -119.164251415     A.U. after   23 cycles
 E2 =    -0.9252823822D+00 EUMP2 =    -0.12008953379720D+03
 CCSD(T)
 CCSD(T)= -0.12011432212D+03

 The electronic state is 6-SG.
 Alpha  occ. eigenvalues --   -4.25408  -2.81166  -2.81166  -2.80685  -1.10297
 Alpha  occ. eigenvalues --   -0.66023  -0.66023  -0.65935  -0.65935  -0.63424
 Alpha  occ. eigenvalues --   -0.34752  -0.34752  -0.32271
 Alpha virt. eigenvalues --   -0.05307   0.01102   0.01102   0.01401   0.03343
 Alpha virt. eigenvalues --    0.05534   0.05534   0.05692   0.05692   0.06361
 Alpha virt. eigenvalues --    0.06753   0.06753   0.10779   0.12577   0.17877

 Mulliken charges and spin densities:
               1          2
     1  Mn   1.071449   4.960643
     2  O   -1.071449   0.039357
 Sum of Mulliken charges =  -0.00000   5.00000

 Dipole moment (field-independent basis, Debye):
    X=              0.0000    Y=              0.0000    Z=              9.2585  Tot=              9.2585
 Quadrupole moment (field-independent basis, Debye-Ang):
   XX=            -19.3486   YY=            -19.3486   ZZ=            -25.2348
   XY=              0.0000   XZ=              0.0000   YZ=              0.0000

 \\#P ROCCSD(T)=(maxcyc=150, Full, SaveAmplitudes, ReadAmplitudes)/Gen
 9.1642514\PMP2-0=-120.0895338\CCSD=-120.0729652\CCSD(T)=-120.1143221\R
 Normal termination of Gaussian 16 at Wed Mar 14 09:22:39 2018.
