 Gaussian 16, Revision A.03,
 Gaussian 16:  ES64L-G16RevA.03 25-Dec-2016

 ----------------------------------------------------------------------
 #P ROCCSD(T)=(MaxCyc=150, Full)/Gen SCF=(maxcycle=400) Pseudo=Read Int
 egral(NoXCTest) Pop=Regular MaxDisk=500GB Guess=Read IOp(5/15=2)
 ----------------------------------------------------------------------

 ---
 CuH
 ---
 Symbolic Z-matrix:
 Charge =  0 Multiplicity = 1

                         Standard orientation:
 ---------------------------------------------------------------------
 Center     Atomic      Atomic             Coordinates (Angstroms)
 Number     Number       Type             X           Y           Z
 ---------------------------------------------------------------------
      1         29           0        0.000000    0.000000    0.036667
      2          1           0        0.000000    0.000000   -1.063333
 ---------------------------------------------------------------------

 SCF Done:  E(ROHF) =  -196.455924704     A.U. after   13 cycles
 E2 =    -0.1122422030D+01 EUMP2 =    -0.19757834673388D+03
 CCSD(T)
 CCSD(T)= -0.19749039556D+03

 The electronic state is 1-SG.
 Alpha  occ. eigenvalues --   -5.29064  -3.42050  -3.39800  -3.39800  -0.59434
 Alpha  occ. eigenvalues --   -0.54700  -0.54700  -0.52756  -0.52756  -0.32992
 Alpha virt. eigenvalues --    0.00854   0.02952   0.02952   0.03226   0.06166
 Alpha virt. eigenvalues --    0.10093   0.10158   0.10158   0.17290   0.19101
 Alpha virt. eigenvalues --    0.19101   0.20604   0.20604   0.22265   0.26040

 Mulliken charges and spin densities:
               1          2
     1  Cu   0.287873   0.000000
     2  H   -0.287873   0.000000
 Sum of Mulliken charges =  -0.00000   0.00000

 Dipole moment (field-independent basis, Debye):
    X=              0.0000    Y=              0.0000    Z=              3.1241  Tot=              3.1241
 Quadrupole moment (field-independent basis, Debye-Ang):
   XX=            -14.2101   YY=            -14.2101   ZZ=            -14.3717
   XY=              0.0000   XZ=              0.0000   YZ=              0.0000

 P ROCCSD(T)=(MaxCyc=150, Full)/Gen SCF=(maxcycle=400) Pseudo=Read Inte
 2-0=-197.5783467\MP4SDQ=-197.5293446\CCSD=-197.4515424\CCSD(T)=-197.49
 Normal termination of Gaussian 16 at Wed Apr  4 22:59:40 2018.
