 Gaussian 16, Revision A.03,
 Gaussian 16:  ES64L-G16RevA.03 25-Dec-2016

 ----------------------------------------------------------------------
 #P ROCCSD(T)=(MaxCyc=150, Full)/Gen SCF=(maxcycle=400) Pseudo=Read Int
 egral(NoXCTest) Pop=Regular MaxDisk=500GB Guess=Read IOp(5/15=2)
 ----------------------------------------------------------------------

 ---
 CuH
 ---
 Symbolic Z-matrix:
 Charge =  0 Multiplicity = 1

                         Standard orientation:
 ---------------------------------------------------------------------
 Center     Atomic      Atomic             Coordinates (Angstroms)
 Number     Number       Type             X           Y           Z
 ---------------------------------------------------------------------
      1         29           0        0.000000    0.000000    0.036667
      2          1           0        0.000000    0.000000   -1.063333
 ---------------------------------------------------------------------

 SCF Done:  E(ROHF) =  -196.458703582     A.U. after    9 cycles
 E2 =    -0.1199361858D+01 EUMP2 =    -0.19765806544023D+03
 CCSD(T)
 CCSD(T)= -0.19756626657D+03

 The electronic state is 1-SG.
 Alpha  occ. eigenvalues --   -5.29053  -3.42028  -3.39783  -3.39783  -0.59433
 Alpha  occ. eigenvalues --   -0.54707  -0.54707  -0.52763  -0.52763  -0.32993
 Alpha virt. eigenvalues --    0.00688   0.02584   0.02584   0.02659   0.04833
 Alpha virt. eigenvalues --    0.07895   0.08500   0.08500   0.11838   0.11838
 Alpha virt. eigenvalues --    0.11975   0.12625   0.12625   0.14943   0.18829

 Mulliken charges and spin densities:
               1          2
     1  Cu   0.292781   0.000000
     2  H   -0.292781   0.000000
 Sum of Mulliken charges =  -0.00000   0.00000

 Dipole moment (field-independent basis, Debye):
    X=              0.0000    Y=              0.0000    Z=              3.1151  Tot=              3.1151
 Quadrupole moment (field-independent basis, Debye-Ang):
   XX=            -14.1995   YY=            -14.1995   ZZ=            -14.3848
   XY=              0.0000   XZ=              0.0000   YZ=              0.0000

 P ROCCSD(T)=(MaxCyc=150, Full)/Gen SCF=(maxcycle=400) Pseudo=Read Inte
 2-0=-197.6580654\MP4SDQ=-197.6009693\CCSD=-197.5246467\CCSD(T)=-197.56
 Normal termination of Gaussian 16 at Thu Apr  5 02:32:19 2018.
