 Gaussian 16, Revision A.03,
 Gaussian 16:  ES64L-G16RevA.03 25-Dec-2016

 ----------------------------------------------------------------------
 #P ROCCSD(T)=(MaxCyc=150, Full)/Gen SCF=(maxcycle=400) Pseudo=Read Int
 egral(NoXCTest) Pop=Regular MaxDisk=500GB Guess=Read IOp(5/15=2)
 ----------------------------------------------------------------------

 ---
 CuH
 ---
 Symbolic Z-matrix:
 Charge =  0 Multiplicity = 1

                         Standard orientation:
 ---------------------------------------------------------------------
 Center     Atomic      Atomic             Coordinates (Angstroms)
 Number     Number       Type             X           Y           Z
 ---------------------------------------------------------------------
      1         29           0        0.000000    0.000000    0.036667
      2          1           0        0.000000    0.000000   -1.063333
 ---------------------------------------------------------------------

 SCF Done:  E(ROHF) =  -196.458835119     A.U. after   10 cycles
 E2 =    -0.1174347732D+01 EUMP2 =    -0.19763318285079D+03
 CCSD(T)
 CCSD(T)= -0.19754366858D+03

 The electronic state is 1-SG.
 Alpha  occ. eigenvalues --   -5.29047  -3.42024  -3.39778  -3.39778  -0.59434
 Alpha  occ. eigenvalues --   -0.54704  -0.54704  -0.52762  -0.52762  -0.32993
 Alpha virt. eigenvalues --    0.00807   0.02673   0.02673   0.02929   0.05706
 Alpha virt. eigenvalues --    0.08867   0.08867   0.09184   0.13272   0.13272
 Alpha virt. eigenvalues --    0.13349   0.14061   0.14061   0.20086   0.23037

 Mulliken charges and spin densities:
               1          2
     1  Cu   0.255467   0.000000
     2  H   -0.255467   0.000000
 Sum of Mulliken charges =  -0.00000   0.00000

 Dipole moment (field-independent basis, Debye):
    X=              0.0000    Y=              0.0000    Z=              3.1166  Tot=              3.1166
 Quadrupole moment (field-independent basis, Debye-Ang):
   XX=            -14.2007   YY=            -14.2007   ZZ=            -14.3831
   XY=              0.0000   XZ=              0.0000   YZ=              0.0000

 P ROCCSD(T)=(MaxCyc=150, Full)/Gen SCF=(maxcycle=400) Pseudo=Read Inte
 2-0=-197.6331829\MP4SDQ=-197.5796726\CCSD=-197.5027999\CCSD(T)=-197.54
 Normal termination of Gaussian 16 at Wed Apr  4 23:51:53 2018.
