 Gaussian 16, Revision A.03,
 Gaussian 16:  ES64L-G16RevA.03 25-Dec-2016

 ----------------------------------------------------------------------
 #P ROCCSD(T)=(maxcyc=150, Full, SaveAmplitudes, ReadAmplitudes)/Gen 5d
  7f SCF=(maxcycles=300) Integral(NoXCTest) MaxDisk=500GB Pop=Regular P
 seudo=Read Guess=Read
 ----------------------------------------------------------------------

 ---
 ScO
 ---
 Symbolic Z-matrix:
 Charge =  0 Multiplicity = 2

                         Standard orientation:
 ---------------------------------------------------------------------
 Center     Atomic      Atomic             Coordinates (Angstroms)
 Number     Number       Type             X           Y           Z
 ---------------------------------------------------------------------
      1         21           0        0.000000    0.000000    0.386207
      2          8           0        0.000000    0.000000   -1.013793
 ---------------------------------------------------------------------

 SCF Done:  E(ROHF) =  -61.9972648209     A.U. after   17 cycles
 E2 =    -0.7019809235D+00 EUMP2 =    -0.62699245744371D+02
 CCSD(T)
 CCSD(T)= -0.62723925218D+02

 The electronic state is 2-SG.
 Alpha  occ. eigenvalues --   -2.62151  -1.71863  -1.55249  -1.55249  -1.09379
 Alpha  occ. eigenvalues --   -0.52359  -0.52359  -0.46070  -0.21144
 Alpha virt. eigenvalues --    0.00822   0.00822   0.02006   0.02047   0.02791
 Alpha virt. eigenvalues --    0.02791   0.02945   0.02945   0.02979   0.03939
 Alpha virt. eigenvalues --    0.03939   0.06231   0.07914   0.07914   0.08913

 Mulliken charges and spin densities:
               1          2
     1  Sc   1.105407   1.001172
     2  O   -1.105407  -0.001172
 Sum of Mulliken charges =  -0.00000   1.00000

 Dipole moment (field-independent basis, Debye):
    X=              0.0000    Y=              0.0000    Z=              1.5980  Tot=              1.5980
 Quadrupole moment (field-independent basis, Debye-Ang):
   XX=            -22.2021   YY=            -22.2021   ZZ=            -30.0673
   XY=              0.0000   XZ=              0.0000   YZ=              0.0000

 \\#P ROCCSD(T)=(maxcyc=150, Full, SaveAmplitudes, ReadAmplitudes)/Gen
 972648\PMP2-0=-62.6992457\CCSD=-62.6897327\CCSD(T)=-62.7239252\RMSD=4.
 Normal termination of Gaussian 16 at Tue Feb 27 14:17:31 2018.
