 Gaussian 16, Revision A.03,
 Gaussian 16:  ES64L-G16RevA.03 25-Dec-2016

 ----------------------------------------------------------------------
 #P ROCCSD(T)=(MaxCyc=150, Full)/Gen SCF=(maxcycle=400, vshift=200) Pse
 udo=Read Integral(NoXCTest) Pop=Regular MaxDisk=500GB
 ----------------------------------------------------------------------

 ---
 ZnO
 ---
 Symbolic Z-matrix:
 Charge =  0 Multiplicity = 1

                         Standard orientation:
 ---------------------------------------------------------------------
 Center     Atomic      Atomic             Coordinates (Angstroms)
 Number     Number       Type             X           Y           Z
 ---------------------------------------------------------------------
      1         30           0        0.000000    0.000000    0.357895
      2          8           0        0.000000    0.000000   -1.342105
 ---------------------------------------------------------------------

 SCF Done:  E(ROHF) =  -240.903565545     A.U. after   19 cycles
 E2 =    -0.1393689238D+01 EUMP2 =    -0.24229725478264D+03
 CCSD(T)
 CCSD(T)= -0.24223778090D+03

 The electronic state is 1-SG.
 Alpha  occ. eigenvalues --   -5.90319  -3.98299  -3.98192  -3.98192  -1.16609
 Alpha  occ. eigenvalues --   -0.82901  -0.82901  -0.82361  -0.82361  -0.80534
 Alpha  occ. eigenvalues --   -0.40062  -0.40062  -0.37443
 Alpha virt. eigenvalues --   -0.04788   0.02361   0.02361   0.02400   0.04195
 Alpha virt. eigenvalues --    0.07667   0.07667   0.11886   0.16490   0.17519
 Alpha virt. eigenvalues --    0.17751   0.17751   0.20508   0.20508   0.23201

 Mulliken charges and spin densities:
               1          2
     1  Zn   0.949062   0.000000
     2  O   -0.949062   0.000000
 Sum of Mulliken charges =  -0.00000   0.00000

 Dipole moment (field-independent basis, Debye):
    X=              0.0000    Y=              0.0000    Z=              7.0942  Tot=              7.0942
 Quadrupole moment (field-independent basis, Debye-Ang):
   XX=            -18.1509   YY=            -18.1509   ZZ=            -21.7054
   XY=              0.0000   XZ=              0.0000   YZ=              0.0000

 P ROCCSD(T)=(MaxCyc=150, Full)/Gen SCF=(maxcycle=400, vshift=200) Pseu
 2548\MP4SDQ=-242.2283895\CCSD=-242.1871404\CCSD(T)=-242.2377809\RMSD=7
 Normal termination of Gaussian 16 at Fri Apr 13 21:35:06 2018.
