 Gaussian 16, Revision A.03,
 Gaussian 16:  ES64L-G16RevA.03 25-Dec-2016

 ----------------------------------------------------------------------
 #P ROCCSD(T)=(MaxCyc=150, Full)/Gen SCF=(maxcycle=400, vshift=200) Pse
 udo=Read Integral(NoXCTest) Pop=Regular MaxDisk=500GB
 ----------------------------------------------------------------------

 ---
 ZnO
 ---
 Symbolic Z-matrix:
 Charge =  0 Multiplicity = 1

                         Standard orientation:
 ---------------------------------------------------------------------
 Center     Atomic      Atomic             Coordinates (Angstroms)
 Number     Number       Type             X           Y           Z
 ---------------------------------------------------------------------
      1         30           0        0.000000    0.000000    0.357895
      2          8           0        0.000000    0.000000   -1.342105
 ---------------------------------------------------------------------

 SCF Done:  E(ROHF) =  -240.900833931     A.U. after   19 cycles
 E2 =    -0.1325624471D+01 EUMP2 =    -0.24222645840230D+03
 CCSD(T)
 CCSD(T)= -0.24216947618D+03

 The electronic state is 1-SG.
 Alpha  occ. eigenvalues --   -5.90335  -3.98325  -3.98211  -3.98211  -1.16650
 Alpha  occ. eigenvalues --   -0.82915  -0.82915  -0.82371  -0.82371  -0.80553
 Alpha  occ. eigenvalues --   -0.40050  -0.40050  -0.37461
 Alpha virt. eigenvalues --   -0.04802   0.02596   0.02596   0.02625   0.04677
 Alpha virt. eigenvalues --    0.08800   0.08800   0.13292   0.17527   0.22034
 Alpha virt. eigenvalues --    0.23655   0.23655   0.24631   0.24631   0.29976

 Mulliken charges and spin densities:
               1          2
     1  Zn   1.026222   0.000000
     2  O   -1.026222   0.000000
 Sum of Mulliken charges =  -0.00000   0.00000

 Dipole moment (field-independent basis, Debye):
    X=              0.0000    Y=              0.0000    Z=              7.1080  Tot=              7.1080
 Quadrupole moment (field-independent basis, Debye-Ang):
   XX=            -18.1641   YY=            -18.1641   ZZ=            -21.7058
   XY=              0.0000   XZ=              0.0000   YZ=              0.0000

 P ROCCSD(T)=(MaxCyc=150, Full)/Gen SCF=(maxcycle=400, vshift=200) Pseu
 64584\MP4SDQ=-242.1635541\CCSD=-242.1214213\CCSD(T)=-242.1694762\RMSD=
 Normal termination of Gaussian 16 at Fri Apr 13 19:20:41 2018.
