 Gaussian 16, Revision A.03,
 Gaussian 16:  ES64L-G16RevA.03 25-Dec-2016

 ----------------------------------------------------------------------
 #P ROCCSD(T)=(maxcyc=150, Full, SaveAmplitudes, ReadAmplitudes)/Gen 5d
  7f SCF=(maxcycles=300) Integral(NoXCTest) MaxDisk=500GB Pop=Regular P
 seudo=Read Guess=Read IOp(5/15=2)
 ----------------------------------------------------------------------

 ---
 CrH
 ---
 Symbolic Z-matrix:
 Charge =  0 Multiplicity = 6

                         Standard orientation:
 ---------------------------------------------------------------------
 Center     Atomic      Atomic             Coordinates (Angstroms)
 Number     Number       Type             X           Y           Z
 ---------------------------------------------------------------------
      1         24           0        0.000000    0.000000    0.052000
      2          1           0        0.000000    0.000000   -1.248000
 ---------------------------------------------------------------------

 SCF Done:  E(ROHF) =  -86.8258720768     A.U. after   32 cycles
 E2 =    -0.5762311323D+00 EUMP2 =    -0.87402103209113D+02
 CCSD(T)
 CCSD(T)= -0.87430035571D+02

 The electronic state is 6-SG.
 Alpha  occ. eigenvalues --   -3.67762  -2.37535  -2.37535  -2.35205  -0.47573
 Alpha  occ. eigenvalues --   -0.47573  -0.44851  -0.44788  -0.44788  -0.25418
 Alpha virt. eigenvalues --    0.01723   0.01723   0.01960   0.02410   0.06160
 Alpha virt. eigenvalues --    0.06178   0.06178   0.07836   0.07836   0.08126
 Alpha virt. eigenvalues --    0.08126   0.08221   0.09996   0.19481   0.22112

 Mulliken charges and spin densities:
               1          2
     1  Cr   0.673906   5.012394
     2  H   -0.673906  -0.012394
 Sum of Mulliken charges =  -0.00000   5.00000

 Dipole moment (field-independent basis, Debye):
    X=              0.0000    Y=              0.0000    Z=              2.0245  Tot=              2.0245
 Quadrupole moment (field-independent basis, Debye-Ang):
   XX=            -16.6350   YY=            -16.6350   ZZ=            -19.5694
   XY=              0.0000   XZ=              0.0000   YZ=              0.0000

 \\#P ROCCSD(T)=(maxcyc=150, Full, SaveAmplitudes, ReadAmplitudes)/Gen
 73\CCSD=-87.4100446\CCSD(T)=-87.4300356\RMSD=5.510e-09\PG=C*V [C*(H1Cr
 Normal termination of Gaussian 16 at Mon Feb 26 00:34:17 2018.
