 Gaussian 16, Revision A.03,
 Gaussian 16:  ES64L-G16RevA.03 25-Dec-2016

 ----------------------------------------------------------------------
 #P ROCCSD(T)=(maxcyc=150, Full, SaveAmplitudes, ReadAmplitudes)/Gen 5d
  7f SCF=(maxcycles=300) Integral(NoXCTest) MaxDisk=500GB Pop=Regular P
 seudo=Read Guess=Read
 ----------------------------------------------------------------------

 ---
 ScO
 ---
 Symbolic Z-matrix:
 Charge =  0 Multiplicity = 2

                         Standard orientation:
 ---------------------------------------------------------------------
 Center     Atomic      Atomic             Coordinates (Angstroms)
 Number     Number       Type             X           Y           Z
 ---------------------------------------------------------------------
      1         21           0        0.000000    0.000000    0.468966
      2          8           0        0.000000    0.000000   -1.231034
 ---------------------------------------------------------------------

 SCF Done:  E(ROHF) =  -62.0672338698     A.U. after   15 cycles
 E2 =    -0.7100792826D+00 EUMP2 =    -0.62777313152378D+02
 CCSD(T)
 CCSD(T)= -0.62804575322D+02

 The electronic state is 2-SG.
 Alpha  occ. eigenvalues --   -2.69783  -1.66723  -1.63779  -1.63779  -1.12547
 Alpha  occ. eigenvalues --   -0.42666  -0.41010  -0.41010  -0.25398
 Alpha virt. eigenvalues --   -0.00037  -0.00037   0.01281   0.02046   0.02702
 Alpha virt. eigenvalues --    0.02702   0.02973   0.02973   0.03236   0.03236
 Alpha virt. eigenvalues --    0.03461   0.04601   0.06790   0.06790   0.09315

 Mulliken charges and spin densities:
               1          2
     1  Sc   1.275055   0.986414
     2  O   -1.275055   0.013586
 Sum of Mulliken charges =  -0.00000   1.00000

 Dipole moment (field-independent basis, Debye):
    X=              0.0000    Y=              0.0000    Z=              4.9320  Tot=              4.9320
 Quadrupole moment (field-independent basis, Debye-Ang):
   XX=            -21.7964   YY=            -21.7964   ZZ=            -32.3637
   XY=              0.0000   XZ=              0.0000   YZ=              0.0000

 \\#P ROCCSD(T)=(maxcyc=150, Full, SaveAmplitudes, ReadAmplitudes)/Gen
 672339\PMP2-0=-62.7773132\CCSD=-62.7623807\CCSD(T)=-62.8045753\RMSD=2.
 Normal termination of Gaussian 16 at Tue Feb 27 14:22:07 2018.
