 Gaussian 16, Revision A.03,
 Gaussian 16:  ES64L-G16RevA.03 25-Dec-2016

 ----------------------------------------------------------------------
 #P ROCCSD(T)=(MaxCyc=150, Full)/Gen SCF=(maxcycle=400, vshift=200) Pse
 udo=Read Integral(NoXCTest) Pop=Regular MaxDisk=500GB Guess=Read IOp(5
 /15=2)
 ----------------------------------------------------------------------

 ---
 ZnH
 ---
 Symbolic Z-matrix:
 Charge =  0 Multiplicity = 2

                         Standard orientation:
 ---------------------------------------------------------------------
 Center     Atomic      Atomic             Coordinates (Angstroms)
 Number     Number       Type             X           Y           Z
 ---------------------------------------------------------------------
      1         30           0        0.000000    0.000000    0.051613
      2          1           0        0.000000    0.000000   -1.548387
 ---------------------------------------------------------------------

 SCF Done:  E(ROHF) =  -226.550758751     A.U. after   17 cycles
 E2 =    -0.1044840381D+01 EUMP2 =    -0.22759559913235D+03
 CCSD(T)
 CCSD(T)= -0.22755332154D+03

 The electronic state is 2-SG.
 Alpha  occ. eigenvalues --   -5.57608  -3.86992  -3.86992  -3.86867  -0.79368
 Alpha  occ. eigenvalues --   -0.79368  -0.79240  -0.78840  -0.78840  -0.45613
 Alpha  occ. eigenvalues --   -0.28012
 Alpha virt. eigenvalues --    0.02049   0.02049   0.02909   0.03904   0.07590
 Alpha virt. eigenvalues --    0.07590   0.08821   0.15880   0.18147   0.24152
 Alpha virt. eigenvalues --    0.24152   0.24981   0.24981   0.25323   0.29169

 Mulliken charges and spin densities:
               1          2
     1  Zn   0.327519   0.934728
     2  H   -0.327519   0.065272
 Sum of Mulliken charges =  -0.00000   1.00000

 Dipole moment (field-independent basis, Debye):
    X=              0.0000    Y=              0.0000    Z=              0.7769  Tot=              0.7769
 Quadrupole moment (field-independent basis, Debye-Ang):
   XX=            -14.4869   YY=            -14.4869   ZZ=            -21.0479
   XY=              0.0000   XZ=              0.0000   YZ=              0.0000

 \\#P ROCCSD(T)=(MaxCyc=150, Full)/Gen SCF=(maxcycle=400, vshift=200) P
 CCSD(T)=-227.5533215\RMSD=8.168e-09\PG=C*V [C*(H1Zn1)]\\@
 Normal termination of Gaussian 16 at Sat Apr 21 10:26:39 2018.
