 Gaussian 16, Revision A.03,
 Gaussian 16:  ES64L-G16RevA.03 25-Dec-2016

 ----------------------------------------------------------------------
 #P ROCCSD(T)=(MaxCyc=150, Full)/Gen SCF=(maxcycle=400, vshift=200) Pse
 udo=Read Integral(NoXCTest) Pop=Regular MaxDisk=500GB Guess=Read IOp(5
 /15=2)
 ----------------------------------------------------------------------

 ---
 ZnH
 ---
 Symbolic Z-matrix:
 Charge =  0 Multiplicity = 2

                         Standard orientation:
 ---------------------------------------------------------------------
 Center     Atomic      Atomic             Coordinates (Angstroms)
 Number     Number       Type             X           Y           Z
 ---------------------------------------------------------------------
      1         30           0        0.000000    0.000000    0.051613
      2          1           0        0.000000    0.000000   -1.548387
 ---------------------------------------------------------------------

 SCF Done:  E(ROHF) =  -226.552655344     A.U. after   19 cycles
 E2 =    -0.1125681494D+01 EUMP2 =    -0.22767833683845D+03
 CCSD(T)
 CCSD(T)= -0.22763325789D+03

 The electronic state is 2-SG.
 Alpha  occ. eigenvalues --   -5.57590  -3.86972  -3.86972  -3.86852  -0.79369
 Alpha  occ. eigenvalues --   -0.79369  -0.79243  -0.78844  -0.78844  -0.45610
 Alpha  occ. eigenvalues --   -0.28015
 Alpha virt. eigenvalues --    0.01870   0.01870   0.02354   0.03256   0.06231
 Alpha virt. eigenvalues --    0.06231   0.06804   0.11983   0.13485   0.15361
 Alpha virt. eigenvalues --    0.15361   0.15439   0.15439   0.18199   0.20834

 Mulliken charges and spin densities:
               1          2
     1  Zn   0.262144   0.924428
     2  H   -0.262144   0.075572
 Sum of Mulliken charges =  -0.00000   1.00000

 Dipole moment (field-independent basis, Debye):
    X=              0.0000    Y=              0.0000    Z=              0.7797  Tot=              0.7797
 Quadrupole moment (field-independent basis, Debye-Ang):
   XX=            -14.4829   YY=            -14.4829   ZZ=            -21.0449
   XY=              0.0000   XZ=              0.0000   YZ=              0.0000

 \\#P ROCCSD(T)=(MaxCyc=150, Full)/Gen SCF=(maxcycle=400, vshift=200) P
 Normal termination of Gaussian 16 at Sun Apr 29 00:34:01 2018.
