 Gaussian 16, Revision A.03,
 Gaussian 16:  ES64L-G16RevA.03 25-Dec-2016

 ----------------------------------------------------------------------
 #P ROCCSD(T)=(MaxCyc=150, Full)/Gen SCF=(maxcycle=400, vshift=200) Pse
 udo=Read Integral(NoXCTest) Pop=Regular MaxDisk=500GB Guess=Read IOp(5
 /15=2)
 ----------------------------------------------------------------------

 ---
 ZnH
 ---
 Symbolic Z-matrix:
 Charge =  0 Multiplicity = 2

                         Standard orientation:
 ---------------------------------------------------------------------
 Center     Atomic      Atomic             Coordinates (Angstroms)
 Number     Number       Type             X           Y           Z
 ---------------------------------------------------------------------
      1         30           0        0.000000    0.000000    0.051613
      2          1           0        0.000000    0.000000   -1.548387
 ---------------------------------------------------------------------

 SCF Done:  E(ROHF) =  -226.552338934     A.U. after   19 cycles
 E2 =    -0.1099402430D+01 EUMP2 =    -0.22765174136383D+03
 CCSD(T)
 CCSD(T)= -0.22760864015D+03

 The electronic state is 2-SG.
 Alpha  occ. eigenvalues --   -5.57577  -3.86973  -3.86973  -3.86853  -0.79369
 Alpha  occ. eigenvalues --   -0.79369  -0.79244  -0.78844  -0.78844  -0.45609
 Alpha  occ. eigenvalues --   -0.28013
 Alpha virt. eigenvalues --    0.01930   0.01930   0.02782   0.03536   0.06646
 Alpha virt. eigenvalues --    0.06646   0.07833   0.14188   0.16886   0.17943
 Alpha virt. eigenvalues --    0.17943   0.18101   0.18101   0.21070   0.23269

 Mulliken charges and spin densities:
               1          2
     1  Zn   0.303272   0.926263
     2  H   -0.303272   0.073737
 Sum of Mulliken charges =  -0.00000   1.00000

 Dipole moment (field-independent basis, Debye):
    X=              0.0000    Y=              0.0000    Z=              0.7793  Tot=              0.7793
 Quadrupole moment (field-independent basis, Debye-Ang):
   XX=            -14.4835   YY=            -14.4835   ZZ=            -21.0473
   XY=              0.0000   XZ=              0.0000   YZ=              0.0000

 \\#P ROCCSD(T)=(MaxCyc=150, Full)/Gen SCF=(maxcycle=400, vshift=200) P
 CCSD(T)=-227.6086402\RMSD=5.870e-09\PG=C*V [C*(H1Zn1)]\\@
 Normal termination of Gaussian 16 at Sat Apr 21 11:20:11 2018.
