 Gaussian 16, Revision A.03,
 Gaussian 16:  ES64L-G16RevA.03 25-Dec-2016

 ----------------------------------------------------------------------
 #P ROCCSD(T)=(maxcyc=150, Full)/Gen 5d 7f SCF=(maxcycles=300) Integral
 (NoXCTest) MaxDisk=500GB Pop=Regular Pseudo=Read Guess=Read
 ----------------------------------------------------------------------

 ---
 CrH
 ---
 Symbolic Z-matrix:
 Charge =  0 Multiplicity = 6

                         Standard orientation:
 ---------------------------------------------------------------------
 Center     Atomic      Atomic             Coordinates (Angstroms)
 Number     Number       Type             X           Y           Z
 ---------------------------------------------------------------------
      1         24           0        0.000000    0.000000    0.076000
      2          1           0        0.000000    0.000000   -1.824000
 ---------------------------------------------------------------------

 SCF Done:  E(ROHF) =  -86.6908961272     A.U. after   21 cycles
 E2 =    -0.5471098755D+00 EUMP2 =    -0.87238006002702D+02
 CCSD(T)
 CCSD(T)= -0.87289133903D+02

 The electronic state is 6-SG.
 Alpha  occ. eigenvalues --   -3.74418  -2.49921  -2.49921  -2.45014  -0.56856
 Alpha  occ. eigenvalues --   -0.56856  -0.53460  -0.53460  -0.38669  -0.26575
 Alpha virt. eigenvalues --    0.01068   0.01068   0.01895   0.02448   0.04536
 Alpha virt. eigenvalues --    0.04838   0.04838   0.05293   0.05293   0.05655
 Alpha virt. eigenvalues --    0.05655   0.06644   0.09628   0.12308   0.16201

 Mulliken charges and spin densities:
               1          2
     1  Cr   0.329024   4.977973
     2  H   -0.329024   0.022027
 Sum of Mulliken charges =  -0.00000   5.00000

 Dipole moment (field-independent basis, Debye):
    X=              0.0000    Y=              0.0000    Z=              2.6875  Tot=              2.6875
 Quadrupole moment (field-independent basis, Debye-Ang):
   XX=            -17.1743   YY=            -17.1743   ZZ=            -25.9877
   XY=              0.0000   XZ=              0.0000   YZ=              0.0000

 \\#P ROCCSD(T)=(maxcyc=150, Full)/Gen 5d 7f SCF=(maxcycles=300) Integr
 .238006\MP4SDQ=-87.2522349\CCSD=-87.2728444\CCSD(T)=-87.2891339\RMSD=5
 Normal termination of Gaussian 16 at Tue Feb 13 12:06:14 2018.
