 Gaussian 16, Revision A.03,
 Gaussian 16:  ES64L-G16RevA.03 25-Dec-2016

 ----------------------------------------------------------------------
 #P ROCCSD(T)=(maxcyc=150, Full, SaveAmplitudes, ReadAmplitudes)/Gen 5d
  7f SCF=(maxcycles=300) Integral(NoXCTest) MaxDisk=500GB Pop=Regular P
 seudo=Read Guess=Read IOp(5/15=2)
 ----------------------------------------------------------------------

 ---
 TiO
 ---
 Symbolic Z-matrix:
 Charge =  0 Multiplicity = 3

                         Standard orientation:
 ---------------------------------------------------------------------
 Center     Atomic      Atomic             Coordinates (Angstroms)
 Number     Number       Type             X           Y           Z
 ---------------------------------------------------------------------
      1         22           0        0.000000    0.000000    0.426667
      2          8           0        0.000000    0.000000   -1.173333
 ---------------------------------------------------------------------

 SCF Done:  E(ROHF) =  -73.3981139001     A.U. after   21 cycles
 E2 =    -0.7430870481D+00 EUMP2 =    -0.74141200948208D+02
 CCSD(T)
 CCSD(T)= -0.74170993370D+02

 Unable to determine electronic state:  an orbital has unidentified symmetry.
 Alpha  occ. eigenvalues --   -3.01016  -1.91039  -1.91039  -1.89983  -1.16664
 Alpha  occ. eigenvalues --   -0.46809  -0.45543  -0.45223  -0.45223  -0.26223
 Alpha virt. eigenvalues --    0.00378   0.00378   0.01609   0.02552   0.04119
 Alpha virt. eigenvalues --    0.04119   0.04804   0.04950   0.05180   0.05866
 Alpha virt. eigenvalues --    0.05866   0.06815   0.10750   0.11228   0.13798

 Mulliken charges and spin densities:
               1          2
     1  Ti   0.896921   1.999660
     2  O   -0.896921   0.000340
 Sum of Mulliken charges =  -0.00000   2.00000

 Dipole moment (field-independent basis, Debye):
    X=              0.0000    Y=              0.0000    Z=              4.1257  Tot=              4.1257
 Quadrupole moment (field-independent basis, Debye-Ang):
   XX=            -21.5016   YY=            -21.5016   ZZ=            -29.1528
   XY=              0.0000   XZ=              0.0000   YZ=              0.0000

 \\#P ROCCSD(T)=(maxcyc=150, Full, SaveAmplitudes, ReadAmplitudes)/Gen
 .1265876\CCSD(T)=-74.1709934\RMSD=4.056e-09\PG=C*V [C*(O1Ti1)]\\@
 Normal termination of Gaussian 16 at Fri Mar  9 15:43:11 2018.
