 Gaussian 16, Revision A.03,
 Gaussian 16:  ES64L-G16RevA.03 25-Dec-2016

 ----------------------------------------------------------------------
 #P ROCCSD(T)=(MaxCyc=150, Full)/Gen SCF=(maxcycle=400, vshift=200) Pse
 udo=Read Integral(NoXCTest) Pop=Regular MaxDisk=500GB Guess=Read IOp(5
 /15=2)
 ----------------------------------------------------------------------

 ---
 ZnH
 ---
 Symbolic Z-matrix:
 Charge =  0 Multiplicity = 2

                         Standard orientation:
 ---------------------------------------------------------------------
 Center     Atomic      Atomic             Coordinates (Angstroms)
 Number     Number       Type             X           Y           Z
 ---------------------------------------------------------------------
      1         30           0        0.000000    0.000000    0.048387
      2          1           0        0.000000    0.000000   -1.451613
 ---------------------------------------------------------------------

 SCF Done:  E(ROHF) =  -226.548865735     A.U. after   17 cycles
 E2 =    -0.1047361152D+01 EUMP2 =    -0.22759622688707D+03
 CCSD(T)
 CCSD(T)= -0.22755221428D+03

 The electronic state is 2-SG.
 Alpha  occ. eigenvalues --   -5.57532  -3.86869  -3.86869  -3.86855  -0.79429
 Alpha  occ. eigenvalues --   -0.79235  -0.79235  -0.78751  -0.78751  -0.46626
 Alpha  occ. eigenvalues --   -0.27716
 Alpha virt. eigenvalues --    0.02090   0.02090   0.02845   0.03967   0.07652
 Alpha virt. eigenvalues --    0.07652   0.08860   0.15855   0.18576   0.24300
 Alpha virt. eigenvalues --    0.24300   0.25051   0.25051   0.25641   0.29048

 Mulliken charges and spin densities:
               1          2
     1  Zn   0.314444   0.944881
     2  H   -0.314444   0.055119
 Sum of Mulliken charges =  -0.00000   1.00000

 Dipole moment (field-independent basis, Debye):
    X=              0.0000    Y=              0.0000    Z=              0.4872  Tot=              0.4872
 Quadrupole moment (field-independent basis, Debye-Ang):
   XX=            -14.4084   YY=            -14.4084   ZZ=            -20.7725
   XY=              0.0000   XZ=              0.0000   YZ=              0.0000

 \\#P ROCCSD(T)=(MaxCyc=150, Full)/Gen SCF=(maxcycle=400, vshift=200) P
 CCSD(T)=-227.5522143\RMSD=4.782e-09\PG=C*V [C*(H1Zn1)]\\@
 Normal termination of Gaussian 16 at Sat Apr 21 10:25:44 2018.
