 Gaussian 16, Revision A.03,
 Gaussian 16:  ES64L-G16RevA.03 25-Dec-2016

 ----------------------------------------------------------------------
 #P ROCCSD(T)=(MaxCyc=150, Full)/Gen SCF=(maxcycle=400, vshift=200) Pse
 udo=Read Integral(NoXCTest) Pop=Regular MaxDisk=500GB Guess=Read IOp(5
 /15=2)
 ----------------------------------------------------------------------

 ---
 ZnH
 ---
 Symbolic Z-matrix:
 Charge =  0 Multiplicity = 2

                         Standard orientation:
 ---------------------------------------------------------------------
 Center     Atomic      Atomic             Coordinates (Angstroms)
 Number     Number       Type             X           Y           Z
 ---------------------------------------------------------------------
      1         30           0        0.000000    0.000000    0.048387
      2          1           0        0.000000    0.000000   -1.451613
 ---------------------------------------------------------------------

 SCF Done:  E(ROHF) =  -226.550449883     A.U. after   18 cycles
 E2 =    -0.1101953930D+01 EUMP2 =    -0.22765240381290D+03
 CCSD(T)
 CCSD(T)= -0.22760755913D+03

 The electronic state is 2-SG.
 Alpha  occ. eigenvalues --   -5.57501  -3.86850  -3.86850  -3.86839  -0.79432
 Alpha  occ. eigenvalues --   -0.79235  -0.79235  -0.78754  -0.78754  -0.46622
 Alpha  occ. eigenvalues --   -0.27716
 Alpha virt. eigenvalues --    0.01968   0.01968   0.02706   0.03606   0.06706
 Alpha virt. eigenvalues --    0.06706   0.07881   0.14245   0.17216   0.17931
 Alpha virt. eigenvalues --    0.17931   0.18150   0.18150   0.21274   0.23241

 Mulliken charges and spin densities:
               1          2
     1  Zn   0.295888   0.933994
     2  H   -0.295888   0.066006
 Sum of Mulliken charges =  -0.00000   1.00000

 Dipole moment (field-independent basis, Debye):
    X=              0.0000    Y=              0.0000    Z=              0.4890  Tot=              0.4890
 Quadrupole moment (field-independent basis, Debye-Ang):
   XX=            -14.4046   YY=            -14.4046   ZZ=            -20.7731
   XY=              0.0000   XZ=              0.0000   YZ=              0.0000

 \\#P ROCCSD(T)=(MaxCyc=150, Full)/Gen SCF=(maxcycle=400, vshift=200) P
 CCSD(T)=-227.6075591\RMSD=8.182e-09\PG=C*V [C*(H1Zn1)]\\@
 Normal termination of Gaussian 16 at Sat Apr 21 11:17:57 2018.
