 Gaussian 16, Revision A.03,
 Gaussian 16:  ES64L-G16RevA.03 25-Dec-2016

 ----------------------------------------------------------------------
 #P ROCCSD(T)=(MaxCyc=150, Full)/Gen SCF=(maxcycle=400, vshift=200) Pse
 udo=Read Integral(NoXCTest) Pop=Regular MaxDisk=500GB Guess=Read IOp(5
 /15=2)
 ----------------------------------------------------------------------

 ---
 ZnH
 ---
 Symbolic Z-matrix:
 Charge =  0 Multiplicity = 2

                         Standard orientation:
 ---------------------------------------------------------------------
 Center     Atomic      Atomic             Coordinates (Angstroms)
 Number     Number       Type             X           Y           Z
 ---------------------------------------------------------------------
      1         30           0        0.000000    0.000000    0.048387
      2          1           0        0.000000    0.000000   -1.451613
 ---------------------------------------------------------------------

 SCF Done:  E(ROHF) =  -226.550768511     A.U. after   19 cycles
 E2 =    -0.1128224317D+01 EUMP2 =    -0.22767899282823D+03
 CCSD(T)
 CCSD(T)= -0.22763216472D+03

 The electronic state is 2-SG.
 Alpha  occ. eigenvalues --   -5.57513  -3.86849  -3.86849  -3.86838  -0.79430
 Alpha  occ. eigenvalues --   -0.79234  -0.79234  -0.78753  -0.78753  -0.46623
 Alpha  occ. eigenvalues --   -0.27718
 Alpha virt. eigenvalues --    0.01907   0.01907   0.02313   0.03289   0.06289
 Alpha virt. eigenvalues --    0.06289   0.06841   0.11913   0.13734   0.15356
 Alpha virt. eigenvalues --    0.15356   0.15479   0.15479   0.18458   0.20791

 Mulliken charges and spin densities:
               1          2
     1  Zn   0.255967   0.931912
     2  H   -0.255967   0.068088
 Sum of Mulliken charges =  -0.00000   1.00000

 Dipole moment (field-independent basis, Debye):
    X=              0.0000    Y=              0.0000    Z=              0.4892  Tot=              0.4892
 Quadrupole moment (field-independent basis, Debye-Ang):
   XX=            -14.4036   YY=            -14.4036   ZZ=            -20.7712
   XY=              0.0000   XZ=              0.0000   YZ=              0.0000

 \\#P ROCCSD(T)=(MaxCyc=150, Full)/Gen SCF=(maxcycle=400, vshift=200) P
 CCSD(T)=-227.6321647\RMSD=3.367e-09\PG=C*V [C*(H1Zn1)]\\@
 Normal termination of Gaussian 16 at Sun Apr 29 00:38:18 2018.
