 Gaussian 16, Revision A.03,
 Gaussian 16:  ES64L-G16RevA.03 25-Dec-2016

 ----------------------------------------------------------------------
 #P ROCCSD(T)=(maxcyc=150, Full)/Gen 5d 7f SCF=(maxcycles=300, NoVarAcc
 , VShift=200) MaxDisk=100GB Pop=Regular Pseudo=Read Guess=Read IOp(5/1
 5=2)
 ----------------------------------------------------------------------

 --
 Cr
 --
 Symbolic Z-matrix:
 Charge =  0 Multiplicity = 7

                         Standard orientation:
 ---------------------------------------------------------------------
 Center     Atomic      Atomic             Coordinates (Angstroms)
 Number     Number       Type             X           Y           Z
 ---------------------------------------------------------------------
      1         24           0        0.000000    0.000000    0.000000
 ---------------------------------------------------------------------

 SCF Done:  E(ROHF) =  -86.1569476697     A.U. after    3 cycles
 E2 =    -0.5500864979D+00 EUMP2 =    -0.86707034167579D+02
 CCSD(T)
 CCSD(T)= -0.86717816408D+02

 The electronic state is 7-A1G.
 Alpha  occ. eigenvalues --   -3.56871  -2.32544  -2.32544  -2.32544  -0.36886
 Alpha  occ. eigenvalues --   -0.36886  -0.36886  -0.36886  -0.36886  -0.22590
 Alpha virt. eigenvalues --    0.01708   0.01708   0.01708   0.02418   0.05524
 Alpha virt. eigenvalues --    0.05524   0.05524   0.05524   0.05524   0.05920
 Alpha virt. eigenvalues --    0.05920   0.05920   0.12730   0.17957   0.17957

 Mulliken charges and spin densities:
               1          2
     1  Cr  -0.000000   6.000000
 Sum of Mulliken charges =  -0.00000   6.00000

 Dipole moment (field-independent basis, Debye):
    X=              0.0000    Y=              0.0000    Z=              0.0000  Tot=              0.0000
 Quadrupole moment (field-independent basis, Debye-Ang):
   XX=            -16.4551   YY=            -16.4551   ZZ=            -16.4551
   XY=              0.0000   XZ=             -0.0000   YZ=             -0.0000

 1\1\GINC-C506-033\SP\ROCCSD(T)-Full\Gen\Cr1(7)\AANNABE\26-Feb-2018\0\\
 #P ROCCSD(T)=(maxcyc=150, Full)/Gen 5d 7f SCF=(maxcycles=300, NoVarAcc
 , VShift=200) MaxDisk=100GB Pop=Regular Pseudo=Read Guess=Read IOp(5/1
 5=2)\\Cr\\0,7\Cr,0,0.,0.,0.\\Version=ES64L-G16RevA.03\State=7-A1G\HF=-
 86.1569477\MP2=-86.7070342\MP3=-86.6987188\PUHF=-86.1569477\PMP2-0=-86
 .7070342\MP4SDQ=-86.7018295\CCSD=-86.7009039\CCSD(T)=-86.7178164\RMSD=
 9.076e-09\PG=OH [O(Cr1)]\\@

 Normal termination of Gaussian 16 at Mon Feb 26 18:45:48 2018.
