 Gaussian 16, Revision A.03,
 Gaussian 16:  ES64L-G16RevA.03 25-Dec-2016

 ----------------------------------------------------------------------
 #P ROCCSD(T)=(maxcyc=150, Full, SaveAmplitudes, ReadAmplitudes)/Gen 5d
  7f SCF=(maxcycles=300) Integral(NoXCTest) MaxDisk=500GB Pop=Regular P
 seudo=Read Guess=Read
 ----------------------------------------------------------------------

 ---
 TiO
 ---
 Symbolic Z-matrix:
 Charge =  0 Multiplicity = 3

                         Standard orientation:
 ---------------------------------------------------------------------
 Center     Atomic      Atomic             Coordinates (Angstroms)
 Number     Number       Type             X           Y           Z
 ---------------------------------------------------------------------
      1         22           0        0.000000    0.000000    0.480000
      2          8           0        0.000000    0.000000   -1.320000
 ---------------------------------------------------------------------

 SCF Done:  E(ROHF) =  -73.3868393236     A.U. after   22 cycles
 E2 =    -0.7815559329D+00 EUMP2 =    -0.74168395256464D+02
 CCSD(T)
 CCSD(T)= -0.74201101664D+02

 Unable to determine electronic state:  an orbital has unidentified symmetry.
 Alpha  occ. eigenvalues --   -3.06642  -1.96005  -1.96005  -1.91911  -1.13977
 Alpha  occ. eigenvalues --   -0.50746  -0.43319  -0.39548  -0.39548  -0.28702
 Alpha virt. eigenvalues --   -0.00490  -0.00490   0.00682   0.02089   0.03105
 Alpha virt. eigenvalues --    0.03105   0.03584   0.03655   0.03705   0.04317
 Alpha virt. eigenvalues --    0.04317   0.04661   0.07368   0.09966   0.10803

 Mulliken charges and spin densities:
               1          2
     1  Ti   1.019652   1.976505
     2  O   -1.019652   0.023495
 Sum of Mulliken charges =  -0.00000   2.00000

 Dipole moment (field-independent basis, Debye):
    X=              0.0000    Y=              0.0000    Z=              6.0661  Tot=              6.0661
 Quadrupole moment (field-independent basis, Debye-Ang):
   XX=            -21.6026   YY=            -21.6026   ZZ=            -30.3083
   XY=              0.0000   XZ=              0.0000   YZ=              0.0000

 \\#P ROCCSD(T)=(maxcyc=150, Full, SaveAmplitudes, ReadAmplitudes)/Gen
 -0=-74.1683953\CCSD=-74.1468455\CCSD(T)=-74.2011017\RMSD=7.207e-10\PG=
 Normal termination of Gaussian 16 at Fri Mar  9 17:02:20 2018.
