 Gaussian 16, Revision A.03,
 Gaussian 16:  ES64L-G16RevA.03 25-Dec-2016

 ----------------------------------------------------------------------
 #P ROCCSD(T)=(maxcyc=150, Full, SaveAmplitudes, ReadAmplitudes)/Gen 5d
  7f SCF=(maxcycles=300) Integral(NoXCTest) MaxDisk=500GB Pop=Regular P
 seudo=Read Guess=Read IOp(5/15=2)
 ----------------------------------------------------------------------

 ---
 ScO
 ---
 Symbolic Z-matrix:
 Charge =  0 Multiplicity = 2

                         Standard orientation:
 ---------------------------------------------------------------------
 Center     Atomic      Atomic             Coordinates (Angstroms)
 Number     Number       Type             X           Y           Z
 ---------------------------------------------------------------------
      1         21           0        0.000000    0.000000    0.496552
      2          8           0        0.000000    0.000000   -1.303448
 ---------------------------------------------------------------------

 SCF Done:  E(ROHF) =  -61.9168137985     A.U. after   16 cycles
 E2 =    -0.6857703375D+00 EUMP2 =    -0.62602584135930D+02
 CCSD(T)
 CCSD(T)= -0.62633948277D+02

 The electronic state is 2-SG.
 Alpha  occ. eigenvalues --   -2.68286  -1.67587  -1.66468  -1.66468  -1.12034
 Alpha  occ. eigenvalues --   -0.41558  -0.38614  -0.38614  -0.26381
 Alpha virt. eigenvalues --   -0.00446  -0.00446   0.01199   0.02116   0.03282
 Alpha virt. eigenvalues --    0.03282   0.03486   0.03486   0.04252   0.04252
 Alpha virt. eigenvalues --    0.04395   0.04989   0.07071   0.07071   0.10251

 Mulliken charges and spin densities:
               1          2
     1  Sc   1.232484   0.976290
     2  O   -1.232484   0.023710
 Sum of Mulliken charges =  -0.00000   1.00000

 Dipole moment (field-independent basis, Debye):
    X=              0.0000    Y=              0.0000    Z=              5.7493  Tot=              5.7493
 Quadrupole moment (field-independent basis, Debye-Ang):
   XX=            -21.9124   YY=            -21.9124   ZZ=            -33.4336
   XY=              0.0000   XZ=              0.0000   YZ=              0.0000

 \\#P ROCCSD(T)=(maxcyc=150, Full, SaveAmplitudes, ReadAmplitudes)/Gen
 61\CCSD=-62.5903101\CCSD(T)=-62.6339483\RMSD=9.555e-09\PG=C*V [C*(O1Sc
 Normal termination of Gaussian 16 at Wed Feb 21 05:32:28 2018.
