 Gaussian 16, Revision A.03,
 Gaussian 16:  ES64L-G16RevA.03 25-Dec-2016

 ----------------------------------------------------------------------
 #P ROCCSD(T)=(maxcyc=100, Full)/Gen SCF=(maxcycle=400, symm) Pseudo=Re
 ad Integral(NoXCTest) Pop=Regular MaxDisk=500GB Guess=Permute IOp(5/15
 =2)
 ----------------------------------------------------------------------

 ---
 FeH
 ---
 Symbolic Z-matrix:
 Charge =  0 Multiplicity = 4

                         Standard orientation:
 ---------------------------------------------------------------------
 Center     Atomic      Atomic             Coordinates (Angstroms)
 Number     Number       Type             X           Y           Z
 ---------------------------------------------------------------------
      1         26           0        0.000000    0.000000    0.066667
      2          1           0        0.000000    0.000000   -1.733333
 ---------------------------------------------------------------------

 SCF Done:  E(ROHF) =  -123.582125664     A.U. after   27 cycles
 E2 =    -0.7548608286D+00 EUMP2 =    -0.12433698649210D+03
 CCSD(T)
 CCSD(T)= -0.12434298582D+03

 Unable to determine electronic state:  an orbital has unidentified symmetry.
 Alpha  occ. eigenvalues --   -4.28067  -2.76133  -2.75854  -2.75854  -0.49026
 Alpha  occ. eigenvalues --   -0.49026  -0.48758  -0.43771  -0.42941  -0.31822
 Alpha virt. eigenvalues --   -0.00831   0.02379   0.02379   0.03370   0.03874
 Alpha virt. eigenvalues --    0.08442   0.08442   0.09470   0.10104   0.10145
 Alpha virt. eigenvalues --    0.10390   0.10390   0.11018   0.17015   0.22758

 Mulliken charges and spin densities:
               1          2
     1  Fe   0.424325   2.998843
     2  H   -0.424325   0.001157
 Sum of Mulliken charges =  -0.00000   3.00000

 Dipole moment (field-independent basis, Debye):
    X=              0.0000    Y=              0.0000    Z=              4.9718  Tot=              4.9718
 Quadrupole moment (field-independent basis, Debye-Ang):
   XX=            -15.2533   YY=            -15.2533   ZZ=            -18.9445
   XY=              0.0000   XZ=              0.0000   YZ=              0.0000

 \\#P ROCCSD(T)=(maxcyc=100, Full)/Gen SCF=(maxcycle=400, symm) Pseudo=
 3176289\CCSD(T)=-124.3429858\RMSD=4.360e-09\PG=C*V [C*(H1Fe1)]\\@
 Normal termination of Gaussian 16 at Mon Feb 12 21:39:38 2018.
