 Gaussian 16, Revision A.03,
 Gaussian 16:  ES64L-G16RevA.03 25-Dec-2016

 ----------------------------------------------------------------------
 #P ROCCSD(T)=(maxcyc=100, Full)/Gen SCF=(maxcycle=400, symm) Pseudo=Re
 ad Integral(NoXCTest) Pop=Regular MaxDisk=500GB Guess=Permute IOp(5/15
 =2)
 ----------------------------------------------------------------------

 ---
 FeH
 ---
 Symbolic Z-matrix:
 Charge =  0 Multiplicity = 4

                         Standard orientation:
 ---------------------------------------------------------------------
 Center     Atomic      Atomic             Coordinates (Angstroms)
 Number     Number       Type             X           Y           Z
 ---------------------------------------------------------------------
      1         26           0        0.000000    0.000000    0.066667
      2          1           0        0.000000    0.000000   -1.733333
 ---------------------------------------------------------------------

 SCF Done:  E(ROHF) =  -123.583450620     A.U. after   30 cycles
 E2 =    -0.8047351556D+00 EUMP2 =    -0.12438818577574D+03
 CCSD(T)
 CCSD(T)= -0.12439015937D+03

 Unable to determine electronic state:  an orbital has unidentified symmetry.
 Alpha  occ. eigenvalues --   -4.28068  -2.76123  -2.75845  -2.75845  -0.49027
 Alpha  occ. eigenvalues --   -0.49027  -0.48759  -0.43779  -0.42952  -0.31825
 Alpha virt. eigenvalues --   -0.00861   0.02071   0.02071   0.02725   0.03122
 Alpha virt. eigenvalues --    0.05747   0.06150   0.06161   0.06366   0.06366
 Alpha virt. eigenvalues --    0.07379   0.07379   0.08863   0.12701   0.15904

 Mulliken charges and spin densities:
               1          2
     1  Fe   0.302791   2.997076
     2  H   -0.302791   0.002924
 Sum of Mulliken charges =  -0.00000   3.00000

 Dipole moment (field-independent basis, Debye):
    X=              0.0000    Y=              0.0000    Z=              4.9663  Tot=              4.9663
 Quadrupole moment (field-independent basis, Debye-Ang):
   XX=            -15.2385   YY=            -15.2385   ZZ=            -18.9592
   XY=              0.0000   XZ=              0.0000   YZ=              0.0000

 \\#P ROCCSD(T)=(maxcyc=100, Full)/Gen SCF=(maxcycle=400, symm) Pseudo=
 361833\CCSD(T)=-124.3901594\RMSD=6.239e-09\PG=C*V [C*(H1Fe1)]\\@
 Normal termination of Gaussian 16 at Mon Feb 12 23:59:16 2018.
