 Gaussian 16, Revision A.03,
 Gaussian 16:  ES64L-G16RevA.03 25-Dec-2016

 ----------------------------------------------------------------------
 #P ROCCSD(T)=(maxcyc=100, Full)/Gen SCF=(maxcycle=400, symm) Pseudo=Re
 ad Integral(NoXCTest) Pop=Regular MaxDisk=500GB Guess=Permute IOp(5/15
 =2)
 ----------------------------------------------------------------------

 ---
 FeH
 ---
 Symbolic Z-matrix:
 Charge =  0 Multiplicity = 4

                         Standard orientation:
 ---------------------------------------------------------------------
 Center     Atomic      Atomic             Coordinates (Angstroms)
 Number     Number       Type             X           Y           Z
 ---------------------------------------------------------------------
      1         26           0        0.000000    0.000000    0.066667
      2          1           0        0.000000    0.000000   -1.733333
 ---------------------------------------------------------------------

 SCF Done:  E(ROHF) =  -123.583264534     A.U. after   40 cycles
 E2 =    -0.7905259219D+00 EUMP2 =    -0.12437379045617D+03
 CCSD(T)
 CCSD(T)= -0.12437778619D+03

 Unable to determine electronic state:  an orbital has unidentified symmetry.
 Alpha  occ. eigenvalues --   -4.28070  -2.76127  -2.75849  -2.75849  -0.49030
 Alpha  occ. eigenvalues --   -0.49030  -0.48762  -0.43777  -0.42948  -0.31825
 Alpha virt. eigenvalues --   -0.00842   0.02137   0.02137   0.03086   0.03595
 Alpha virt. eigenvalues --    0.06216   0.06713   0.06727   0.06876   0.06876
 Alpha virt. eigenvalues --    0.07743   0.07743   0.10165   0.15688   0.17732

 Mulliken charges and spin densities:
               1          2
     1  Fe   0.345223   2.998094
     2  H   -0.345223   0.001906
 Sum of Mulliken charges =  -0.00000   3.00000

 Dipole moment (field-independent basis, Debye):
    X=              0.0000    Y=              0.0000    Z=              4.9665  Tot=              4.9665
 Quadrupole moment (field-independent basis, Debye-Ang):
   XX=            -15.2407   YY=            -15.2407   ZZ=            -18.9559
   XY=              0.0000   XZ=              0.0000   YZ=              0.0000

 \\#P ROCCSD(T)=(maxcyc=100, Full)/Gen SCF=(maxcycle=400, symm) Pseudo=
 3502357\CCSD(T)=-124.3777862\RMSD=5.888e-09\PG=C*V [C*(H1Fe1)]\\@
 Normal termination of Gaussian 16 at Mon Feb 12 22:18:01 2018.
