 Gaussian 16, Revision A.03,
 Gaussian 16:  ES64L-G16RevA.03 25-Dec-2016

 ----------------------------------------------------------------------
 #P ROCCSD(T)=(MaxCyc=150, Full)/Gen SCF=(maxcycle=400) Pseudo=Read Int
 egral(NoXCTest) Pop=Regular MaxDisk=500GB Guess=Read IOp(5/15=2)
 ----------------------------------------------------------------------

 ---
 NiO
 ---
 Symbolic Z-matrix:
 Charge =  0 Multiplicity = 3

                         Standard orientation:
 ---------------------------------------------------------------------
 Center     Atomic      Atomic             Coordinates (Angstroms)
 Number     Number       Type             X           Y           Z
 ---------------------------------------------------------------------
      1         28           0        0.000000    0.000000    0.266667
      2          8           0        0.000000    0.000000   -0.933333
 ---------------------------------------------------------------------

 SCF Done:  E(ROHF) =  -184.624173930     A.U. after   23 cycles
 E2 =    -0.1285329489D+01 EUMP2 =    -0.18590950341924D+03
 CCSD(T)
 CCSD(T)= -0.18586356667D+03

 The electronic state is 3-SG.
 Alpha  occ. eigenvalues --   -5.06354  -3.54203  -3.40625  -3.40625  -1.35728
 Alpha  occ. eigenvalues --   -0.89678  -0.89678  -0.76596  -0.69814  -0.69814
 Alpha  occ. eigenvalues --   -0.49063  -0.49063  -0.33852
 Alpha virt. eigenvalues --    0.00546   0.03016   0.03016   0.03557   0.05010
 Alpha virt. eigenvalues --    0.10111   0.10111   0.11999   0.12665   0.12665
 Alpha virt. eigenvalues --    0.12842   0.12842   0.13673   0.18873   0.25900

 Mulliken charges and spin densities:
               1          2
     1  Ni   0.770743   1.573814
     2  O   -0.770743   0.426186
 Sum of Mulliken charges =  -0.00000   2.00000

 Dipole moment (field-independent basis, Debye):
    X=              0.0000    Y=              0.0000    Z=              2.9294  Tot=              2.9294
 Quadrupole moment (field-independent basis, Debye-Ang):
   XX=            -19.0523   YY=            -19.0523   ZZ=            -18.7273
   XY=              0.0000   XZ=              0.0000   YZ=              0.0000

 \\#P ROCCSD(T)=(MaxCyc=150, Full)/Gen SCF=(maxcycle=400) Pseudo=Read I
 MP2-0=-185.9095034\MP4SDQ=-185.8592144\CCSD=-185.8101178\CCSD(T)=-185.
 Normal termination of Gaussian 16 at Mon Mar 26 16:45:17 2018.
