 Gaussian 16, Revision A.03,
 Gaussian 16:  ES64L-G16RevA.03 25-Dec-2016

 ----------------------------------------------------------------------
 #P ROCCSD(T)=(MaxCyc=150, Full)/Gen SCF=(maxcycle=400) Pseudo=Read Int
 egral(NoXCTest) Pop=Regular MaxDisk=500GB Guess=Read IOp(5/15=2)
 ----------------------------------------------------------------------

 ---
 NiO
 ---
 Symbolic Z-matrix:
 Charge =  0 Multiplicity = 3

                         Standard orientation:
 ---------------------------------------------------------------------
 Center     Atomic      Atomic             Coordinates (Angstroms)
 Number     Number       Type             X           Y           Z
 ---------------------------------------------------------------------
      1         28           0        0.000000    0.000000    0.266667
      2          8           0        0.000000    0.000000   -0.933333
 ---------------------------------------------------------------------

 SCF Done:  E(ROHF) =  -184.628570459     A.U. after   19 cycles
 E2 =    -0.1343458083D+01 EUMP2 =    -0.18597202854200D+03
 CCSD(T)
 CCSD(T)= -0.18592394935D+03

 The electronic state is 3-SG.
 Alpha  occ. eigenvalues --   -5.06318  -3.54165  -3.40603  -3.40603  -1.35680
 Alpha  occ. eigenvalues --   -0.89692  -0.89692  -0.76596  -0.69824  -0.69824
 Alpha  occ. eigenvalues --   -0.49080  -0.49080  -0.33837
 Alpha virt. eigenvalues --    0.00505   0.02687   0.02687   0.03225   0.04693
 Alpha virt. eigenvalues --    0.07798   0.07798   0.08077   0.08370   0.08370
 Alpha virt. eigenvalues --    0.09662   0.09662   0.11713   0.17348   0.22182

 Mulliken charges and spin densities:
               1          2
     1  Ni   0.529093   1.587234
     2  O   -0.529093   0.412766
 Sum of Mulliken charges =  -0.00000   2.00000

 Dipole moment (field-independent basis, Debye):
    X=              0.0000    Y=              0.0000    Z=              2.9171  Tot=              2.9171
 Quadrupole moment (field-independent basis, Debye-Ang):
   XX=            -19.0504   YY=            -19.0504   ZZ=            -18.7129
   XY=              0.0000   XZ=              0.0000   YZ=              0.0000

 \\#P ROCCSD(T)=(MaxCyc=150, Full)/Gen SCF=(maxcycle=400) Pseudo=Read I
 PMP2-0=-185.9720285\MP4SDQ=-185.9161481\CCSD=-185.8679406\CCSD(T)=-185
 Normal termination of Gaussian 16 at Mon Mar 26 18:55:36 2018.
