 Gaussian 16, Revision A.03,
 Gaussian 16:  ES64L-G16RevA.03 25-Dec-2016

 ----------------------------------------------------------------------
 #P ROCCSD(T)=(MaxCyc=150, Full)/Gen SCF=(maxcycle=400) Pseudo=Read Int
 egral(NoXCTest) Pop=Regular MaxDisk=500GB Guess=Read IOp(5/15=2)
 ----------------------------------------------------------------------

 --
 Co
 --
 Symbolic Z-matrix:
 Charge =  0 Multiplicity = 4

                         Standard orientation:
 ---------------------------------------------------------------------
 Center     Atomic      Atomic             Coordinates (Angstroms)
 Number     Number       Type             X           Y           Z
 ---------------------------------------------------------------------
      1         27           0        0.000000    0.000000    0.000000
 ---------------------------------------------------------------------

 SCF Done:  E(ROHF) =  -144.944570964     A.U. after   20 cycles
 E2 =    -0.7942047978D+00 EUMP2 =    -0.14573877576146D+03
 CCSD(T)
 CCSD(T)= -0.14574027495D+03

 Unable to determine electronic state:  an orbital has unidentified symmetry.
 Alpha  occ. eigenvalues --   -4.85311  -3.20764  -3.20764  -3.20764  -0.72352
 Alpha  occ. eigenvalues --   -0.72352  -0.72352  -0.67295  -0.67295  -0.28296
 Alpha virt. eigenvalues --    0.02115   0.02115   0.02115   0.02332   0.06702
 Alpha virt. eigenvalues --    0.06702   0.06702   0.06708   0.06708   0.06726
 Alpha virt. eigenvalues --    0.06726   0.06726   0.11512   0.20969   0.20969

 Mulliken charges and spin densities:
               1          2
     1  Co  -0.000000   3.000000
 Sum of Mulliken charges =  -0.00000   3.00000

 Dipole moment (field-independent basis, Debye):
    X=              0.0000    Y=              0.0000    Z=              0.0000  Tot=              0.0000
 Quadrupole moment (field-independent basis, Debye-Ang):
   XX=            -17.0768   YY=            -17.0768   ZZ=            -17.0768
   XY=              0.0000   XZ=             -0.0000   YZ=              0.0000

 1\1\GINC-C405-102\SP\ROCCSD(T)-Full\Gen\Co1(4)\GWANG18\05-May-2018\0\\
 #P ROCCSD(T)=(MaxCyc=150, Full)/Gen SCF=(maxcycle=400) Pseudo=Read Int
 egral(NoXCTest) Pop=Regular MaxDisk=500GB Guess=Read IOp(5/15=2)\\Co\\
 0,4\Co,0,0.,0.,0.\\Version=ES64L-G16RevA.03\HF=-144.944571\MP2=-145.73
 87758\MP3=-145.7038678\PUHF=-144.944571\PMP2-0=-145.7387758\MP4SDQ=-14
 5.7215456\CCSD=-145.7168986\CCSD(T)=-145.740275\RMSD=8.453e-09\PG=OH [
 O(Co1)]\\@

 Normal termination of Gaussian 16 at Sat May  5 21:52:18 2018.
