 Gaussian 16, Revision A.03,
 Gaussian 16:  ES64L-G16RevA.03 25-Dec-2016

 ----------------------------------------------------------------------
 #P ROCCSD(T)=(MaxCyc=150, Full)/Gen SCF=(maxcycle=400) Pseudo=Read Int
 egral(NoXCTest) Pop=Regular MaxDisk=500GB Guess=Read IOp(5/15=2)
 ----------------------------------------------------------------------

 --
 Co
 --
 Symbolic Z-matrix:
 Charge =  0 Multiplicity = 4

                         Standard orientation:
 ---------------------------------------------------------------------
 Center     Atomic      Atomic             Coordinates (Angstroms)
 Number     Number       Type             X           Y           Z
 ---------------------------------------------------------------------
      1         27           0        0.000000    0.000000    0.000000
 ---------------------------------------------------------------------

 SCF Done:  E(ROHF) =  -144.944382407     A.U. after   13 cycles
 E2 =    -0.7757991941D+00 EUMP2 =    -0.14572018160105D+03
 CCSD(T)
 CCSD(T)= -0.14572369615D+03

 Unable to determine electronic state:  an orbital has unidentified symmetry.
 Alpha  occ. eigenvalues --   -4.85312  -3.20766  -3.20766  -3.20766  -0.72354
 Alpha  occ. eigenvalues --   -0.72354  -0.72354  -0.67291  -0.67291  -0.28296
 Alpha virt. eigenvalues --    0.02159   0.02159   0.02159   0.02844   0.06988
 Alpha virt. eigenvalues --    0.06988   0.06988   0.07401   0.07401   0.07401
 Alpha virt. eigenvalues --    0.07409   0.07409   0.15164   0.23200   0.23200

 Mulliken charges and spin densities:
               1          2
     1  Co   0.000000   3.000000
 Sum of Mulliken charges =   0.00000   3.00000

 Dipole moment (field-independent basis, Debye):
    X=              0.0000    Y=              0.0000    Z=              0.0000  Tot=              0.0000
 Quadrupole moment (field-independent basis, Debye-Ang):
   XX=            -17.0777   YY=            -17.0777   ZZ=            -17.0777
   XY=             -0.0000   XZ=             -0.0000   YZ=              0.0000

 1\1\GINC-C406-003\SP\ROCCSD(T)-Full\Gen\Co1(4)\GWANG18\02-Apr-2018\0\\
 #P ROCCSD(T)=(MaxCyc=150, Full)/Gen SCF=(maxcycle=400) Pseudo=Read Int
 egral(NoXCTest) Pop=Regular MaxDisk=500GB Guess=Read IOp(5/15=2)\\Co\\
 0,4\Co,0,0.,0.,0.\\Version=ES64L-G16RevA.03\HF=-144.9443824\MP2=-145.7
 201816\MP3=-145.6874167\PUHF=-144.9443824\PMP2-0=-145.7201816\MP4SDQ=-
 145.7055864\CCSD=-145.7008086\CCSD(T)=-145.7236961\RMSD=9.397e-09\PG=O
 H [O(Co1)]\\@

 Normal termination of Gaussian 16 at Mon Apr  2 15:10:23 2018.
