 Gaussian 16, Revision A.03,
 Gaussian 16:  ES64L-G16RevA.03 25-Dec-2016

 ----------------------------------------------------------------------
 #P ROCCSD(T)=(MaxCyc=150, Full)/Gen SCF=(maxcycle=400) Pseudo=Read Int
 egral(NoXCTest) Pop=Regular MaxDisk=500GB Guess=Read IOp(5/15=2)
 ----------------------------------------------------------------------

 --
 Co
 --
 Symbolic Z-matrix:
 Charge =  0 Multiplicity = 4

                         Standard orientation:
 ---------------------------------------------------------------------
 Center     Atomic      Atomic             Coordinates (Angstroms)
 Number     Number       Type             X           Y           Z
 ---------------------------------------------------------------------
      1         27           0        0.000000    0.000000    0.000000
 ---------------------------------------------------------------------

 SCF Done:  E(ROHF) =  -144.943255786     A.U. after   15 cycles
 E2 =    -0.7380914297D+00 EUMP2 =    -0.14568134721581D+03
 CCSD(T)
 CCSD(T)= -0.14568611677D+03

 Unable to determine electronic state:  an orbital has unidentified symmetry.
 Alpha  occ. eigenvalues --   -4.85316  -3.20777  -3.20777  -3.20777  -0.72353
 Alpha  occ. eigenvalues --   -0.72353  -0.72353  -0.67287  -0.67287  -0.28300
 Alpha virt. eigenvalues --    0.02288   0.02288   0.02288   0.02958   0.07820
 Alpha virt. eigenvalues --    0.07820   0.07820   0.11273   0.11273   0.11273
 Alpha virt. eigenvalues --    0.11300   0.11300   0.15679   0.28066   0.28066

 Mulliken charges and spin densities:
               1          2
     1  Co   0.000000   3.000000
 Sum of Mulliken charges =   0.00000   3.00000

 Dipole moment (field-independent basis, Debye):
    X=              0.0000    Y=              0.0000    Z=              0.0000  Tot=              0.0000
 Quadrupole moment (field-independent basis, Debye-Ang):
   XX=            -17.0791   YY=            -17.0791   ZZ=            -17.0791
   XY=             -0.0000   XZ=             -0.0000   YZ=              0.0000

 1\1\GINC-C406-003\SP\ROCCSD(T)-Full\Gen\Co1(4)\GWANG18\02-Apr-2018\0\\
 #P ROCCSD(T)=(MaxCyc=150, Full)/Gen SCF=(maxcycle=400) Pseudo=Read Int
 egral(NoXCTest) Pop=Regular MaxDisk=500GB Guess=Read IOp(5/15=2)\\Co\\
 0,4\Co,0,0.,0.,0.\\Version=ES64L-G16RevA.03\HF=-144.9432558\MP2=-145.6
 813472\MP3=-145.6501897\PUHF=-144.9432558\PMP2-0=-145.6813472\MP4SDQ=-
 145.6694222\CCSD=-145.6644546\CCSD(T)=-145.6861168\RMSD=2.904e-09\PG=O
 H [O(Co1)]\\@

 Normal termination of Gaussian 16 at Mon Apr  2 14:47:30 2018.
