 Gaussian 16, Revision A.03,
 Gaussian 16:  ES64L-G16RevA.03 25-Dec-2016

 ----------------------------------------------------------------------
 #P ROCCSD(T)=(maxcyc=150, Full, SaveAmplitudes, ReadAmplitudes)/Gen 5d
  7f SCF=(maxcycles=300) Integral(NoXCTest) MaxDisk=500GB Pop=Regular P
 seudo=Read Guess=Read
 ----------------------------------------------------------------------

 ---
 ScO
 ---
 Symbolic Z-matrix:
 Charge =  0 Multiplicity = 2

                         Standard orientation:
 ---------------------------------------------------------------------
 Center     Atomic      Atomic             Coordinates (Angstroms)
 Number     Number       Type             X           Y           Z
 ---------------------------------------------------------------------
      1         21           0        0.000000    0.000000    0.303448
      2          8           0        0.000000    0.000000   -0.796552
 ---------------------------------------------------------------------

 SCF Done:  E(ROHF) =  -61.2839432349     A.U. after   15 cycles
 E2 =    -0.6719955498D+00 EUMP2 =    -0.61955938784715D+02
 CCSD(T)
 CCSD(T)= -0.61985686151D+02

 The electronic state is 2-SG.
 Alpha  occ. eigenvalues --   -2.70059  -1.86479  -1.53988  -1.53988  -1.03562
 Alpha  occ. eigenvalues --   -0.69604  -0.69604  -0.47135  -0.16492
 Alpha virt. eigenvalues --    0.00906   0.00906   0.01359   0.02697   0.02830
 Alpha virt. eigenvalues --    0.02830   0.02843   0.02843   0.02959   0.04372
 Alpha virt. eigenvalues --    0.04372   0.06110   0.08129   0.08129   0.08389

 Mulliken charges and spin densities:
               1          2
     1  Sc   0.731172   1.051081
     2  O   -0.731172  -0.051081
 Sum of Mulliken charges =  -0.00000   1.00000

 Dipole moment (field-independent basis, Debye):
    X=              0.0000    Y=              0.0000    Z=             -2.4805  Tot=              2.4805
 Quadrupole moment (field-independent basis, Debye-Ang):
   XX=            -24.5409   YY=            -24.5409   ZZ=            -28.5934
   XY=              0.0000   XZ=              0.0000   YZ=              0.0000

 \\#P ROCCSD(T)=(maxcyc=150, Full, SaveAmplitudes, ReadAmplitudes)/Gen
 839432\PMP2-0=-61.9559388\CCSD=-61.9592\CCSD(T)=-61.9856862\RMSD=1.764
 Normal termination of Gaussian 16 at Tue Feb 20 20:58:25 2018.
