 Gaussian 16, Revision A.03,
 Gaussian 16:  ES64L-G16RevA.03 25-Dec-2016

 ----------------------------------------------------------------------
 #P ROCCSD(T)=(maxcyc=100, Full)/Gen SCF=(maxcycle=400, symm) Pseudo=Re
 ad Integral(NoXCTest) Pop=Regular MaxDisk=500GB Guess=Permute IOp(5/15
 =2)
 ----------------------------------------------------------------------

 ---
 FeH
 ---
 Symbolic Z-matrix:
 Charge =  0 Multiplicity = 4

                         Standard orientation:
 ---------------------------------------------------------------------
 Center     Atomic      Atomic             Coordinates (Angstroms)
 Number     Number       Type             X           Y           Z
 ---------------------------------------------------------------------
      1         26           0        0.000000    0.000000    0.074074
      2          1           0        0.000000    0.000000   -1.925926
 ---------------------------------------------------------------------

 SCF Done:  E(ROHF) =  -123.573257777     A.U. after   26 cycles
 E2 =    -0.8061871228D+00 EUMP2 =    -0.12437944489999D+03
 CCSD(T)
 CCSD(T)= -0.12439155744D+03

 Unable to determine electronic state:  an orbital has unidentified symmetry.
 Alpha  occ. eigenvalues --   -4.16431  -2.74693  -2.74542  -2.74542  -0.48548
 Alpha  occ. eigenvalues --   -0.48548  -0.48514  -0.43400  -0.42207  -0.30970
 Alpha virt. eigenvalues --   -0.01357   0.01961   0.01961   0.02684   0.02977
 Alpha virt. eigenvalues --    0.05727   0.06086   0.06098   0.06373   0.06373
 Alpha virt. eigenvalues --    0.07163   0.07163   0.09077   0.12318   0.15133

 Mulliken charges and spin densities:
               1          2
     1  Fe   0.340672   2.998338
     2  H   -0.340672   0.001662
 Sum of Mulliken charges =  -0.00000   3.00000

 Dipole moment (field-independent basis, Debye):
    X=              0.0000    Y=              0.0000    Z=              5.5486  Tot=              5.5486
 Quadrupole moment (field-independent basis, Debye-Ang):
   XX=            -15.1546   YY=            -15.1546   ZZ=            -20.7737
   XY=              0.0000   XZ=              0.0000   YZ=              0.0000

 \\#P ROCCSD(T)=(maxcyc=100, Full)/Gen SCF=(maxcycle=400, symm) Pseudo=
 646332\CCSD(T)=-124.3915574\RMSD=2.170e-09\PG=C*V [C*(H1Fe1)]\\@
 Normal termination of Gaussian 16 at Mon Feb 19 17:19:36 2018.
