 Gaussian 16, Revision A.03,
 Gaussian 16:  ES64L-G16RevA.03 25-Dec-2016

 ----------------------------------------------------------------------
 #P ROCCSD(T)=(maxcyc=100, Full)/Gen SCF=(maxcycle=400, symm) Pseudo=Re
 ad Integral(NoXCTest) Pop=Regular MaxDisk=500GB Guess=Permute IOp(5/15
 =2)
 ----------------------------------------------------------------------

 ---
 FeH
 ---
 Symbolic Z-matrix:
 Charge =  0 Multiplicity = 4

                         Standard orientation:
 ---------------------------------------------------------------------
 Center     Atomic      Atomic             Coordinates (Angstroms)
 Number     Number       Type             X           Y           Z
 ---------------------------------------------------------------------
      1         26           0        0.000000    0.000000    0.074074
      2          1           0        0.000000    0.000000   -1.925926
 ---------------------------------------------------------------------

 SCF Done:  E(ROHF) =  -123.571551868     A.U. after   24 cycles
 E2 =    -0.7563243319D+00 EUMP2 =    -0.12432787619996D+03
 CCSD(T)
 CCSD(T)= -0.12434410823D+03

 Unable to determine electronic state:  an orbital has unidentified symmetry.
 Alpha  occ. eigenvalues --   -4.16454  -2.74710  -2.74558  -2.74558  -0.48539
 Alpha  occ. eigenvalues --   -0.48539  -0.48504  -0.43384  -0.42184  -0.30967
 Alpha virt. eigenvalues --   -0.01341   0.02262   0.02262   0.03507   0.03522
 Alpha virt. eigenvalues --    0.08213   0.08213   0.09327   0.09968   0.10012
 Alpha virt. eigenvalues --    0.10307   0.10307   0.11278   0.16680   0.21747

 Mulliken charges and spin densities:
               1          2
     1  Fe   0.433346   2.999387
     2  H   -0.433346   0.000613
 Sum of Mulliken charges =  -0.00000   3.00000

 Dipole moment (field-independent basis, Debye):
    X=              0.0000    Y=              0.0000    Z=              5.5528  Tot=              5.5528
 Quadrupole moment (field-independent basis, Debye-Ang):
   XX=            -15.1725   YY=            -15.1725   ZZ=            -20.7566
   XY=              0.0000   XZ=              0.0000   YZ=              0.0000

 \\#P ROCCSD(T)=(maxcyc=100, Full)/Gen SCF=(maxcycle=400, symm) Pseudo=
 209955\CCSD(T)=-124.3441082\RMSD=4.838e-09\PG=C*V [C*(H1Fe1)]\\@
 Normal termination of Gaussian 16 at Mon Feb 12 20:23:26 2018.
