 Gaussian 16, Revision A.03,
 Gaussian 16:  ES64L-G16RevA.03 25-Dec-2016

 ----------------------------------------------------------------------
 #P ROCCSD(T)=(maxcyc=100, Full)/Gen SCF=(maxcycle=400, symm) Pseudo=Re
 ad Integral(NoXCTest) Pop=Regular MaxDisk=500GB Guess=Permute IOp(5/15
 =2)
 ----------------------------------------------------------------------

 ---
 FeH
 ---
 Symbolic Z-matrix:
 Charge =  0 Multiplicity = 4

                         Standard orientation:
 ---------------------------------------------------------------------
 Center     Atomic      Atomic             Coordinates (Angstroms)
 Number     Number       Type             X           Y           Z
 ---------------------------------------------------------------------
      1         26           0        0.000000    0.000000    0.074074
      2          1           0        0.000000    0.000000   -1.925926
 ---------------------------------------------------------------------

 SCF Done:  E(ROHF) =  -123.572662686     A.U. after   26 cycles
 E2 =    -0.7920074150D+00 EUMP2 =    -0.12436467010130D+03
 CCSD(T)
 CCSD(T)= -0.12437882364D+03

 Unable to determine electronic state:  an orbital has unidentified symmetry.
 Alpha  occ. eigenvalues --   -4.16411  -2.74697  -2.74546  -2.74546  -0.48550
 Alpha  occ. eigenvalues --   -0.48550  -0.48516  -0.43396  -0.42202  -0.30969
 Alpha virt. eigenvalues --   -0.01346   0.02024   0.02024   0.03224   0.03251
 Alpha virt. eigenvalues --    0.06188   0.06640   0.06655   0.06858   0.06858
 Alpha virt. eigenvalues --    0.07539   0.07539   0.10446   0.14943   0.17351

 Mulliken charges and spin densities:
               1          2
     1  Fe   0.377603   2.999080
     2  H   -0.377603   0.000920
 Sum of Mulliken charges =  -0.00000   3.00000

 Dipole moment (field-independent basis, Debye):
    X=              0.0000    Y=              0.0000    Z=              5.5491  Tot=              5.5491
 Quadrupole moment (field-independent basis, Debye-Ang):
   XX=            -15.1568   YY=            -15.1568   ZZ=            -20.7709
   XY=              0.0000   XZ=              0.0000   YZ=              0.0000

 \\#P ROCCSD(T)=(maxcyc=100, Full)/Gen SCF=(maxcycle=400, symm) Pseudo=
 529137\CCSD(T)=-124.3788236\RMSD=2.627e-09\PG=C*V [C*(H1Fe1)]\\@
 Normal termination of Gaussian 16 at Mon Feb 19 14:01:56 2018.
