 Gaussian 16, Revision A.03,
 Gaussian 16:  ES64L-G16RevA.03 25-Dec-2016

 ----------------------------------------------------------------------
 #P ROCCSD(T)=(maxcyc=150, Full, SaveAmplitudes, ReadAmplitudes)/Gen 5d
  7f SCF=(maxcycles=300) Integral(NoXCTest) MaxDisk=500GB Pop=Regular P
 seudo=Read Guess=Read
 ----------------------------------------------------------------------

 ---
 ScO
 ---
 Symbolic Z-matrix:
 Charge =  0 Multiplicity = 2

                         Standard orientation:
 ---------------------------------------------------------------------
 Center     Atomic      Atomic             Coordinates (Angstroms)
 Number     Number       Type             X           Y           Z
 ---------------------------------------------------------------------
      1         21           0        0.000000    0.000000    0.551724
      2          8           0        0.000000    0.000000   -1.448276
 ---------------------------------------------------------------------

 SCF Done:  E(ROHF) =  -61.8984935266     A.U. after   17 cycles
 E2 =    -0.7269599531D+00 EUMP2 =    -0.62625453479721D+02
 CCSD(T)
 CCSD(T)= -0.62656883014D+02

 The electronic state is 2-SG.
 Alpha  occ. eigenvalues --   -2.73993  -1.70367  -1.70367  -1.69863  -1.09801
 Alpha  occ. eigenvalues --   -0.38942  -0.34761  -0.34761  -0.28356
 Alpha virt. eigenvalues --   -0.01334  -0.01334   0.00480   0.01620   0.02376
 Alpha virt. eigenvalues --    0.02376   0.02519   0.02519   0.03036   0.03302
 Alpha virt. eigenvalues --    0.03302   0.04043   0.04379   0.04379   0.08633

 Mulliken charges and spin densities:
               1          2
     1  Sc   1.190051   0.981242
     2  O   -1.190051   0.018758
 Sum of Mulliken charges =  -0.00000   1.00000

 Dipole moment (field-independent basis, Debye):
    X=              0.0000    Y=              0.0000    Z=              7.4499  Tot=              7.4499
 Quadrupole moment (field-independent basis, Debye-Ang):
   XX=            -22.0784   YY=            -22.0784   ZZ=            -34.7980
   XY=              0.0000   XZ=              0.0000   YZ=              0.0000

 \\#P ROCCSD(T)=(maxcyc=150, Full, SaveAmplitudes, ReadAmplitudes)/Gen
 84935\PMP2-0=-62.6254535\CCSD=-62.6028487\CCSD(T)=-62.656883\RMSD=2.21
 Normal termination of Gaussian 16 at Wed Mar  7 13:04:23 2018.
