 Gaussian 16, Revision A.03,
 Gaussian 16:  ES64L-G16RevA.03 25-Dec-2016

 ----------------------------------------------------------------------
 #P ROCCSD(T)=(maxcyc=150, Full)/Gen 5d 7f SCF=(maxcycles=300) Integral
 (NoXCTest, DKHSO) MaxDisk=500GB Pop=Regular IOp(5/15=2) Guess=Read
 ----------------------------------------------------------------------

 ---
 MnH
 ---
 Symbolic Z-matrix:
 Charge =  0 Multiplicity = 7

                         Standard orientation:
 ---------------------------------------------------------------------
 Center     Atomic      Atomic             Coordinates (Angstroms)
 Number     Number       Type             X           Y           Z
 ---------------------------------------------------------------------
      1         25           0        0.000000    0.000000    0.073077
      2          1           0        0.000000    0.000000   -1.826923
 ---------------------------------------------------------------------

 SCF Done:  E(ROHF) =  -1157.94595966     A.U. after   20 cycles
 E2 =    -0.9982929224D+00 EUMP2 =    -0.11589442525799D+04
 CCSD(T)
 CCSD(T)= -0.11589539935D+04

 The electronic state is 7-SG.
 Alpha  occ. eigenvalues -- -242.50962 -29.61211 -24.96670 -24.96670 -24.96602
 Alpha  occ. eigenvalues --   -4.10158  -2.75486  -2.75486  -2.75224  -0.65066
 Alpha  occ. eigenvalues --   -0.65066  -0.64398  -0.64340  -0.64340  -0.39421
 Alpha  occ. eigenvalues --   -0.26730
 Alpha virt. eigenvalues --    0.01046   0.01046   0.02173   0.02889   0.04930
 Alpha virt. eigenvalues --    0.04930   0.05606   0.05773   0.05773   0.06196
 Alpha virt. eigenvalues --    0.06196   0.09437   0.12610   0.13823   0.18045

 Mulliken charges and spin densities:
               1          2
     1  Mn   0.373263   5.953732
     2  H   -0.373263   0.046268
 Sum of Mulliken charges =  -0.00000   6.00000

 Dipole moment (field-independent basis, Debye):
    X=              0.0000    Y=              0.0000    Z=              2.0217  Tot=              2.0217
 Quadrupole moment (field-independent basis, Debye-Ang):
   XX=            -16.6415   YY=            -16.6415   ZZ=            -27.6869
   XY=              0.0000   XZ=              0.0000   YZ=              0.0000

 \\#P ROCCSD(T)=(maxcyc=150, Full)/Gen 5d 7f SCF=(maxcycles=300) Integr
 Normal termination of Gaussian 16 at Wed Feb 14 23:38:44 2018.
