 Gaussian 16, Revision A.03,
 Gaussian 16:  ES64L-G16RevA.03 25-Dec-2016

 ----------------------------------------------------------------------
 #P ROCCSD(T)=(MaxCyc=150, FrzINGC)/Gen SCF=(maxcycle=400, vshift=200)
 Integral(DKHSO, NoXCTest) Pop=Regular MaxDisk=500GB Guess=Read IOp(5/1
 5=2)
 ----------------------------------------------------------------------

 ---
 FeH
 ---
 Symbolic Z-matrix:
 Charge =  0 Multiplicity = 4

                         Standard orientation:
 ---------------------------------------------------------------------
 Center     Atomic      Atomic             Coordinates (Angstroms)
 Number     Number       Type             X           Y           Z
 ---------------------------------------------------------------------
      1         26           0        0.000000    0.000000    0.074074
      2          1           0        0.000000    0.000000   -1.925926
 ---------------------------------------------------------------------

 SCF Done:  E(ROHF) =  -1271.80508575     A.U. after   41 cycles
 E2 =    -0.7366079971D+00 EUMP2 =    -0.12725416937486D+04
 CCSD(T)
 CCSD(T)= -0.12725401976D+04

 Unable to determine electronic state:  an orbital has unidentified symmetry.
 Alpha  occ. eigenvalues -- -263.52602 -32.29536 -27.36538 -27.36538 -27.36301
 Alpha  occ. eigenvalues --   -4.19473  -2.74520  -2.74338  -2.74338  -0.48581
 Alpha  occ. eigenvalues --   -0.48581  -0.48522  -0.43543  -0.42406  -0.30962
 Alpha virt. eigenvalues --   -0.01302   0.02275   0.02275   0.03512   0.03537
 Alpha virt. eigenvalues --    0.08271   0.08271   0.09332   0.09971   0.10014
 Alpha virt. eigenvalues --    0.10319   0.10319   0.11280   0.16700   0.21738

 Mulliken charges and spin densities:
               1          2
     1  Fe   0.436211   2.999537
     2  H   -0.436211   0.000463
 Sum of Mulliken charges =  -0.00000   3.00000

 Dipole moment (field-independent basis, Debye):
    X=              0.0000    Y=              0.0000    Z=              5.5341  Tot=              5.5341
 Quadrupole moment (field-independent basis, Debye-Ang):
   XX=            -15.5040   YY=            -15.5040   ZZ=            -21.0968
   XY=              0.0000   XZ=              0.0000   YZ=              0.0000

 \#P ROCCSD(T)=(MaxCyc=150, FrzINGC)/Gen SCF=(maxcycle=400, vshift=200)
 \PMP2-0=-1272.5416937\MP4SDQ=-1272.5218792\CCSD=-1272.5171202\CCSD(T)=
 Normal termination of Gaussian 16 at Wed Mar  7 12:03:19 2018.
