 Gaussian 16, Revision A.03,
 Gaussian 16:  ES64L-G16RevA.03 25-Dec-2016

 ----------------------------------------------------------------------
 #P ROCCSD(T)=(MaxCyc=150, FrzINGC)/Gen SCF=(maxcycle=400, vshift=200)
 Integral(DKHSO, NoXCTest) Pop=Regular MaxDisk=500GB Guess=Read IOp(5/1
 5=2)
 ----------------------------------------------------------------------

 ---
 FeH
 ---
 Symbolic Z-matrix:
 Charge =  0 Multiplicity = 4

                         Standard orientation:
 ---------------------------------------------------------------------
 Center     Atomic      Atomic             Coordinates (Angstroms)
 Number     Number       Type             X           Y           Z
 ---------------------------------------------------------------------
      1         26           0        0.000000    0.000000    0.074074
      2          1           0        0.000000    0.000000   -1.925926
 ---------------------------------------------------------------------

 SCF Done:  E(ROHF) =  -1271.80678035     A.U. after   22 cycles
 E2 =    -0.7711042288D+00 EUMP2 =    -0.12725778845777D+04
 CCSD(T)
 CCSD(T)= -0.12725746204D+04

 Unable to determine electronic state:  an orbital has unidentified symmetry.
 Alpha  occ. eigenvalues -- -263.52599 -32.29518 -27.36519 -27.36519 -27.36282
 Alpha  occ. eigenvalues --   -4.19465  -2.74513  -2.74331  -2.74331  -0.48588
 Alpha  occ. eigenvalues --   -0.48588  -0.48529  -0.43552  -0.42419  -0.30964
 Alpha virt. eigenvalues --   -0.01308   0.02035   0.02035   0.03227   0.03266
 Alpha virt. eigenvalues --    0.06191   0.06640   0.06655   0.06866   0.06866
 Alpha virt. eigenvalues --    0.07586   0.07586   0.10444   0.14956   0.17379

 Mulliken charges and spin densities:
               1          2
     1  Fe   0.376500   2.999032
     2  H   -0.376500   0.000968
 Sum of Mulliken charges =  -0.00000   3.00000

 Dipole moment (field-independent basis, Debye):
    X=              0.0000    Y=              0.0000    Z=              5.5297  Tot=              5.5297
 Quadrupole moment (field-independent basis, Debye-Ang):
   XX=            -15.4903   YY=            -15.4903   ZZ=            -21.1107
   XY=              0.0000   XZ=              0.0000   YZ=              0.0000

 \#P ROCCSD(T)=(MaxCyc=150, FrzINGC)/Gen SCF=(maxcycle=400, vshift=200)
 \PMP2-0=-1272.5778846\MP4SDQ=-1272.5548357\CCSD=-1272.5490524\CCSD(T)=
 Normal termination of Gaussian 16 at Wed Mar  7 12:46:01 2018.
