 Gaussian 16, Revision A.03,
 Gaussian 16:  ES64L-G16RevA.03 25-Dec-2016

 ----------------------------------------------------------------------
 #P ROCCSD(T)=(maxcyc=150, Full, SaveAmplitudes, ReadAmplitudes)/Gen 5d
  7f SCF=(maxcycles=300) Integral(NoXCTest) MaxDisk=500GB Pop=Regular P
 seudo=Read Guess=Read
 ----------------------------------------------------------------------

 ---
 CrH
 ---
 Symbolic Z-matrix:
 Charge =  0 Multiplicity = 6

                         Standard orientation:
 ---------------------------------------------------------------------
 Center     Atomic      Atomic             Coordinates (Angstroms)
 Number     Number       Type             X           Y           Z
 ---------------------------------------------------------------------
      1         24           0        0.000000    0.000000    0.060000
      2          1           0        0.000000    0.000000   -1.440000
 ---------------------------------------------------------------------

 SCF Done:  E(ROHF) =  -86.8701905138     A.U. after   24 cycles
 E2 =    -0.5770424913D+00 EUMP2 =    -0.87447233005126D+02
 CCSD(T)
 CCSD(T)= -0.87487013669D+02

 The electronic state is 6-SG.
 Alpha  occ. eigenvalues --   -3.71800  -2.41698  -2.41698  -2.37747  -0.51839
 Alpha  occ. eigenvalues --   -0.51839  -0.48801  -0.48801  -0.42724  -0.25638
 Alpha virt. eigenvalues --    0.01442   0.01442   0.01973   0.02279   0.04643
 Alpha virt. eigenvalues --    0.05255   0.05255   0.05395   0.05395   0.05686
 Alpha virt. eigenvalues --    0.05686   0.06628   0.09519   0.12681   0.16838

 Mulliken charges and spin densities:
               1          2
     1  Cr   0.345113   4.981280
     2  H   -0.345113   0.018720
 Sum of Mulliken charges =  -0.00000   5.00000

 Dipole moment (field-independent basis, Debye):
    X=              0.0000    Y=              0.0000    Z=              1.9292  Tot=              1.9292
 Quadrupole moment (field-independent basis, Debye-Ang):
   XX=            -16.8056   YY=            -16.8056   ZZ=            -21.9999
   XY=              0.0000   XZ=              0.0000   YZ=              0.0000

 \\#P ROCCSD(T)=(maxcyc=150, Full, SaveAmplitudes, ReadAmplitudes)/Gen
 01905\PMP2-0=-87.447233\CCSD=-87.4677169\CCSD(T)=-87.4870137\RMSD=6.45
 Normal termination of Gaussian 16 at Mon Feb 26 06:05:42 2018.
