 Gaussian 16, Revision A.03,
 Gaussian 16:  ES64L-G16RevA.03 25-Dec-2016

 ----------------------------------------------------------------------
 #P ROCCSD(T)=(maxcyc=150, Full, SaveAmplitudes, ReadAmplitudes)/Gen 5d
  7f SCF=(maxcycles=300) Integral(NoXCTest) MaxDisk=500GB Pop=Regular P
 seudo=Read Guess=Read IOp(5/15=2)
 ----------------------------------------------------------------------

 ---
 ScO
 ---
 Symbolic Z-matrix:
 Charge =  0 Multiplicity = 2

                         Standard orientation:
 ---------------------------------------------------------------------
 Center     Atomic      Atomic             Coordinates (Angstroms)
 Number     Number       Type             X           Y           Z
 ---------------------------------------------------------------------
      1         21           0        0.000000    0.000000    0.358621
      2          8           0        0.000000    0.000000   -0.941379
 ---------------------------------------------------------------------

 SCF Done:  E(ROHF) =  -61.6655028489     A.U. after   19 cycles
 E2 =    -0.6623573237D+00 EUMP2 =    -0.62327860172593D+02
 CCSD(T)
 CCSD(T)= -0.62356299976D+02

 The electronic state is 2-SG.
 Alpha  occ. eigenvalues --   -2.58754  -1.76853  -1.53247  -1.53247  -1.06054
 Alpha  occ. eigenvalues --   -0.58040  -0.58040  -0.47251  -0.19359
 Alpha virt. eigenvalues --    0.00991   0.00991   0.02033   0.02511   0.03782
 Alpha virt. eigenvalues --    0.03782   0.03798   0.03798   0.03900   0.04788
 Alpha virt. eigenvalues --    0.04788   0.07349   0.10834   0.10834   0.11019

 Mulliken charges and spin densities:
               1          2
     1  Sc   1.214431   1.005415
     2  O   -1.214431  -0.005415
 Sum of Mulliken charges =  -0.00000   1.00000

 Dipole moment (field-independent basis, Debye):
    X=              0.0000    Y=              0.0000    Z=              0.1372  Tot=              0.1372
 Quadrupole moment (field-independent basis, Debye-Ang):
   XX=            -22.8825   YY=            -22.8825   ZZ=            -29.6454
   XY=              0.0000   XZ=              0.0000   YZ=              0.0000

 \\#P ROCCSD(T)=(maxcyc=150, Full, SaveAmplitudes, ReadAmplitudes)/Gen
 9\CCSD=-62.326635\CCSD(T)=-62.3563\RMSD=2.237e-09\PG=C*V [C*(O1Sc1)]\\
 Normal termination of Gaussian 16 at Tue Feb 20 22:34:25 2018.
