 Gaussian 16, Revision A.03,
 Gaussian 16:  ES64L-G16RevA.03 25-Dec-2016

 ----------------------------------------------------------------------
 #P ROCCSD(T)=(MaxCyc=150, Window=(7,0))/Gen SCF=(maxcycle=400) Integra
 l(DKHSO, NoXCTest) Pop=Regular MaxDisk=500GB
 ----------------------------------------------------------------------

 ---
 FeO
 ---
 Symbolic Z-matrix:
 Charge =  0 Multiplicity = 5

                         Standard orientation:
 ---------------------------------------------------------------------
 Center     Atomic      Atomic             Coordinates (Angstroms)
 Number     Number       Type             X           Y           Z
 ---------------------------------------------------------------------
      1         26           0        0.000000    0.000000    0.400000
      2          8           0        0.000000    0.000000   -1.300000
 ---------------------------------------------------------------------

 SCF Done:  E(ROHF) =  -1346.19643290     A.U. after   41 cycles
 E2 =    -0.1016037861D+01 EUMP2 =    -0.13472124707650D+04
 CCSD(T)
 CCSD(T)= -0.13472276104D+04

 Unable to determine electronic state:  partially filled degenerate orbitals.
 Alpha  occ. eigenvalues -- -263.69124 -32.49642 -27.58074 -27.55322 -27.55322
 Alpha  occ. eigenvalues --  -20.44490  -4.41519  -3.00537  -2.93843  -2.93843
 Alpha  occ. eigenvalues --   -1.11127  -0.69467  -0.69467  -0.66882  -0.66100
 Alpha  occ. eigenvalues --   -0.61192  -0.35128  -0.34324  -0.34324
 Alpha virt. eigenvalues --   -0.05372   0.01415   0.01415   0.01536   0.03567
 Alpha virt. eigenvalues --    0.06098   0.06098   0.06403   0.06413   0.06670
 Alpha virt. eigenvalues --    0.07746   0.07746   0.11680   0.13501   0.19075

 Mulliken charges and spin densities:
               1          2
     1  Fe   1.130825   3.897942
     2  O   -1.130825   0.102058
 Sum of Mulliken charges =  -0.00000   4.00000

 Dipole moment (field-independent basis, Debye):
    X=              0.0000    Y=              0.0000    Z=              9.1981  Tot=              9.1981
 Quadrupole moment (field-independent basis, Debye-Ang):
   XX=            -18.8868   YY=            -18.8868   ZZ=            -23.4494
   XY=             -0.0000   XZ=              0.0000   YZ=              0.0000

 1\1\GINC-C422-092\SP\ROCCSD(T)-RW\Gen\Fe1O1(5)\GWANG18\01-Mar-2018\0\\
 #P ROCCSD(T)=(MaxCyc=150, Window=(7,0))/Gen SCF=(maxcycle=400) Integra
 l(DKHSO, NoXCTest) Pop=Regular MaxDisk=500GB\\FeO\\0,5\Fe,0,0.,0.,0.\O
 ,0,0.,0.,1.7\\Version=ES64L-G16RevA.03\HF=-1346.1964329\MP2=-1347.2124
 708\MP3=-1347.1291391\PUHF=-1346.1964329\PMP2-0=-1347.2124708\MP4SDQ=-
 1347.1925349\CCSD=-1347.1788048\CCSD(T)=-1347.2276104\RMSD=9.142e-09\P
 G=C*V [C*(O1Fe1)]\\@

 Normal termination of Gaussian 16 at Thu Mar  1 04:46:06 2018.
