 Gaussian 16, Revision A.03,
 Gaussian 16:  ES64L-G16RevA.03 25-Dec-2016

 ----------------------------------------------------------------------
 #P ROCCSD(T)=(MaxCyc=150, Window=(7,0))/Gen SCF=(maxcycle=400) Integra
 l(DKHSO, NoXCTest) Pop=Regular MaxDisk=500GB
 ----------------------------------------------------------------------

 ---
 FeO
 ---
 Symbolic Z-matrix:
 Charge =  0 Multiplicity = 5

                         Standard orientation:
 ---------------------------------------------------------------------
 Center     Atomic      Atomic             Coordinates (Angstroms)
 Number     Number       Type             X           Y           Z
 ---------------------------------------------------------------------
      1         26           0        0.000000    0.000000    0.400000
      2          8           0        0.000000    0.000000   -1.300000
 ---------------------------------------------------------------------

 SCF Done:  E(ROHF) =  -1346.19078046     A.U. after   27 cycles
 E2 =    -0.9704622447D+00 EUMP2 =    -0.13471612427040D+04
 CCSD(T)
 CCSD(T)= -0.13471786725D+04

 Unable to determine electronic state:  partially filled degenerate orbitals.
 Alpha  occ. eigenvalues -- -263.69139 -32.49671 -27.58107 -27.55351 -27.55351
 Alpha  occ. eigenvalues --  -20.44653  -4.41540  -3.00561  -2.93861  -2.93861
 Alpha  occ. eigenvalues --   -1.11198  -0.69470  -0.69470  -0.66890  -0.66101
 Alpha  occ. eigenvalues --   -0.61193  -0.35143  -0.34319  -0.34319
 Alpha virt. eigenvalues --   -0.05378   0.01694   0.01694   0.01796   0.04026
 Alpha virt. eigenvalues --    0.07016   0.07016   0.08760   0.09492   0.09524
 Alpha virt. eigenvalues --    0.10624   0.10624   0.13804   0.14824   0.24530

 Mulliken charges and spin densities:
               1          2
     1  Fe   1.144584   3.886424
     2  O   -1.144584   0.113576
 Sum of Mulliken charges =  -0.00000   4.00000

 Dipole moment (field-independent basis, Debye):
    X=              0.0000    Y=              0.0000    Z=              9.2066  Tot=              9.2066
 Quadrupole moment (field-independent basis, Debye-Ang):
   XX=            -18.8901   YY=            -18.8901   ZZ=            -23.4712
   XY=              0.0000   XZ=              0.0000   YZ=              0.0000

 1\1\GINC-C422-092\SP\ROCCSD(T)-RW\Gen\Fe1O1(5)\GWANG18\28-Feb-2018\0\\
 #P ROCCSD(T)=(MaxCyc=150, Window=(7,0))/Gen SCF=(maxcycle=400) Integra
 l(DKHSO, NoXCTest) Pop=Regular MaxDisk=500GB\\FeO\\0,5\Fe,0,0.,0.,0.\O
 ,0,0.,0.,1.7\\Version=ES64L-G16RevA.03\HF=-1346.1907805\MP2=-1347.1612
 427\MP3=-1347.080711\PUHF=-1346.1907805\PMP2-0=-1347.1612427\MP4SDQ=-1
 347.1464899\CCSD=-1347.1320793\CCSD(T)=-1347.1786725\RMSD=8.005e-09\PG
 =C*V [C*(O1Fe1)]\\@

 Normal termination of Gaussian 16 at Wed Feb 28 22:02:58 2018.
