 Gaussian 16, Revision A.03,
 Gaussian 16:  ES64L-G16RevA.03 25-Dec-2016

 ----------------------------------------------------------------------
 #P ROCCSD(T)=(maxcyc=150, Full, SaveAmplitudes, ReadAmplitudes)/Gen 5d
  7f SCF=(maxcycles=300) Integral(NoXCTest) MaxDisk=500GB Pop=Regular P
 seudo=Read Guess=Read
 ----------------------------------------------------------------------

 ---
 TiO
 ---
 Symbolic Z-matrix:
 Charge =  0 Multiplicity = 3

                         Standard orientation:
 ---------------------------------------------------------------------
 Center     Atomic      Atomic             Coordinates (Angstroms)
 Number     Number       Type             X           Y           Z
 ---------------------------------------------------------------------
      1         22           0        0.000000    0.000000    0.453333
      2          8           0        0.000000    0.000000   -1.246667
 ---------------------------------------------------------------------

 SCF Done:  E(ROHF) =  -73.5193092247     A.U. after   20 cycles
 E2 =    -0.7833991466D+00 EUMP2 =    -0.74302708371260D+02
 CCSD(T)
 CCSD(T)= -0.74333288954D+02

 Unable to determine electronic state:  an orbital has unidentified symmetry.
 Alpha  occ. eigenvalues --   -3.06828  -1.92453  -1.92453  -1.89401  -1.15437
 Alpha  occ. eigenvalues --   -0.47737  -0.45031  -0.42026  -0.42026  -0.27644
 Alpha virt. eigenvalues --   -0.00079  -0.00079   0.01140   0.02241   0.03354
 Alpha virt. eigenvalues --    0.03354   0.03645   0.03735   0.04149   0.04239
 Alpha virt. eigenvalues --    0.04239   0.04714   0.08320   0.10163   0.11406

 Mulliken charges and spin densities:
               1          2
     1  Ti   1.054506   1.972883
     2  O   -1.054506   0.027117
 Sum of Mulliken charges =  -0.00000   2.00000

 Dipole moment (field-independent basis, Debye):
    X=              0.0000    Y=              0.0000    Z=              5.1271  Tot=              5.1271
 Quadrupole moment (field-independent basis, Debye-Ang):
   XX=            -21.4642   YY=            -21.4642   ZZ=            -29.8466
   XY=              0.0000   XZ=              0.0000   YZ=              0.0000

 \\#P ROCCSD(T)=(maxcyc=150, Full, SaveAmplitudes, ReadAmplitudes)/Gen
 -0=-74.3027084\CCSD=-74.2835023\CCSD(T)=-74.333289\RMSD=6.562e-09\PG=C
 Normal termination of Gaussian 16 at Tue Mar 13 02:19:40 2018.
