 Gaussian 16, Revision A.03,
 Gaussian 16:  ES64L-G16RevA.03 25-Dec-2016

 ----------------------------------------------------------------------
 #P ROCCSD(T)=(maxcyc=150, Full, SaveAmplitudes, ReadAmplitudes)/Gen 5d
  7f SCF=(maxcycles=300) Integral(NoXCTest) MaxDisk=500GB Pop=Regular P
 seudo=Read Guess=Read
 ----------------------------------------------------------------------

 ---
 CrO
 ---
 Symbolic Z-matrix:
 Charge =  0 Multiplicity = 5

                         Standard orientation:
 ---------------------------------------------------------------------
 Center     Atomic      Atomic             Coordinates (Angstroms)
 Number     Number       Type             X           Y           Z
 ---------------------------------------------------------------------
      1         24           0        0.000000    0.000000    0.450000
      2          8           0        0.000000    0.000000   -1.350000
 ---------------------------------------------------------------------

 SCF Done:  E(ROHF) =  -102.011970298     A.U. after   48 cycles
 E2 =    -0.8979032443D+00 EUMP2 =    -0.10290987354264D+03
 CCSD(T)
 CCSD(T)= -0.10295911746D+03

 Unable to determine electronic state:  an orbital has unidentified symmetry.
 Alpha  occ. eigenvalues --   -3.76793  -2.48546  -2.43579  -2.42745  -1.08772
 Alpha  occ. eigenvalues --   -0.57591  -0.56161  -0.55444  -0.52196  -0.34299
 Alpha  occ. eigenvalues --   -0.32998  -0.32680
 Alpha virt. eigenvalues --   -0.04556   0.00638   0.01184   0.01358   0.03097
 Alpha virt. eigenvalues --    0.04519   0.05193   0.05193   0.05599   0.06065
 Alpha virt. eigenvalues --    0.06155   0.06512   0.10612   0.11279   0.13117

 Mulliken charges and spin densities:
               1          2
     1  Cr   1.111246   3.946659
     2  O   -1.111246   0.053341
 Sum of Mulliken charges =  -0.00000   4.00000

 Dipole moment (field-independent basis, Debye):
    X=              0.0000    Y=              0.0000    Z=              9.6929  Tot=              9.6929
 Quadrupole moment (field-independent basis, Debye-Ang):
   XX=            -19.5329   YY=            -18.7264   ZZ=            -23.9570
   XY=              0.0000   XZ=              0.0000   YZ=              0.0000

 \\#P ROCCSD(T)=(maxcyc=150, Full, SaveAmplitudes, ReadAmplitudes)/Gen
 381\CCSD(T)=-102.9591175\RMSD=3.603e-09\PG=C*V [C*(O1Cr1)]\\@
 Normal termination of Gaussian 16 at Mon Mar 12 16:04:22 2018.
