 Gaussian 16, Revision A.03,
 Gaussian 16:  ES64L-G16RevA.03 25-Dec-2016

 ----------------------------------------------------------------------
 #P ROCCSD(T)=(maxcyc=150, Full)/Gen 5d 7f SCF=(maxcycles=300) Integral
 (NoXCTest) MaxDisk=500GB Pop=Regular Pseudo=Read Guess=Read
 ----------------------------------------------------------------------

 ---
 ScH
 ---
 Symbolic Z-matrix:
 Charge =  0 Multiplicity = 1

                         Standard orientation:
 ---------------------------------------------------------------------
 Center     Atomic      Atomic             Coordinates (Angstroms)
 Number     Number       Type             X           Y           Z
 ---------------------------------------------------------------------
      1         21           0        0.000000    0.000000    0.090909
      2          1           0        0.000000    0.000000   -1.909091
 ---------------------------------------------------------------------

 SCF Done:  E(ROHF) =  -46.6547407339     A.U. after   10 cycles
 E2 =    -0.4193361829D+00 EUMP2 =    -0.47074076916803D+02
 CCSD(T)
 CCSD(T)= -0.47120153203D+02

 The electronic state is 1-SG.
 Alpha  occ. eigenvalues --   -2.70624  -1.68240  -1.68240  -1.68048  -0.37991
 Alpha  occ. eigenvalues --   -0.23934
 Alpha virt. eigenvalues --    0.00980   0.00980   0.01248   0.02031   0.02823
 Alpha virt. eigenvalues --    0.02823   0.02944   0.02944   0.02996   0.03838
 Alpha virt. eigenvalues --    0.03906   0.03906   0.06713   0.06713   0.07510

 Mulliken charges and spin densities:
               1          2
     1  Sc   0.262290   0.000000
     2  H   -0.262290   0.000000
 Sum of Mulliken charges =  -0.00000   0.00000

 Dipole moment (field-independent basis, Debye):
    X=              0.0000    Y=              0.0000    Z=              2.1997  Tot=              2.1997
 Quadrupole moment (field-independent basis, Debye-Ang):
   XX=            -22.9216   YY=            -22.9216   ZZ=            -28.3432
   XY=              0.0000   XZ=              0.0000   YZ=              0.0000

 P ROCCSD(T)=(maxcyc=150, Full)/Gen 5d 7f SCF=(maxcycles=300) Integral(
 40769\MP4SDQ=-47.0997786\CCSD=-47.100149\CCSD(T)=-47.1201532\RMSD=4.50
 Normal termination of Gaussian 16 at Tue Feb 13 08:14:30 2018.
