 Gaussian 16, Revision A.03,
 Gaussian 16:  ES64L-G16RevA.03 25-Dec-2016

 ----------------------------------------------------------------------
 #P ROCCSD(T)=(maxcyc=150, Full)/Gen 5d 7f SCF=(maxcycles=300, NoVarAcc
 , VShift=400) MaxDisk=100GB Pop=Regular Pseudo=Read IOp(5/15=2)
 ----------------------------------------------------------------------

 --
 Cr
 --
 Symbolic Z-matrix:
 Charge =  0 Multiplicity = 7

                         Standard orientation:
 ---------------------------------------------------------------------
 Center     Atomic      Atomic             Coordinates (Angstroms)
 Number     Number       Type             X           Y           Z
 ---------------------------------------------------------------------
      1         24           0        0.000000    0.000000    0.000000
 ---------------------------------------------------------------------

 SCF Done:  E(ROHF) =  -86.3429555810     A.U. after   48 cycles
 E2 =    -0.5688782127D+00 EUMP2 =    -0.86911833793706D+02
 CCSD(T)
 CCSD(T)= -0.86919879540D+02

 The electronic state is 7-A1G.
 Alpha  occ. eigenvalues --   -3.59133  -2.29296  -2.29296  -2.29296  -0.36849
 Alpha  occ. eigenvalues --   -0.36849  -0.36849  -0.36849  -0.36849  -0.22742
 Alpha virt. eigenvalues --    0.01706   0.01706   0.01706   0.02255   0.05111
 Alpha virt. eigenvalues --    0.05111   0.05111   0.05111   0.05111   0.05745
 Alpha virt. eigenvalues --    0.05745   0.05745   0.11256   0.16249   0.16249

 Mulliken charges and spin densities:
               1          2
     1  Cr  -0.000000   6.000000
 Sum of Mulliken charges =  -0.00000   6.00000

 Dipole moment (field-independent basis, Debye):
    X=              0.0000    Y=              0.0000    Z=              0.0000  Tot=              0.0000
 Quadrupole moment (field-independent basis, Debye-Ang):
   XX=            -16.3008   YY=            -16.3008   ZZ=            -16.3008
   XY=             -0.0000   XZ=             -0.0000   YZ=              0.0000

 1\1\GINC-C406-052\SP\ROCCSD(T)-Full\Gen\Cr1(7)\AANNABE\12-Mar-2018\0\\
 #P ROCCSD(T)=(maxcyc=150, Full)/Gen 5d 7f SCF=(maxcycles=300, NoVarAcc
 , VShift=400) MaxDisk=100GB Pop=Regular Pseudo=Read IOp(5/15=2)\\Cr\\0
 ,7\Cr,0,0.,0.,0.\\Version=ES64L-G16RevA.03\State=7-A1G\HF=-86.3429556\
 MP2=-86.9118338\MP3=-86.8996688\PUHF=-86.3429556\PMP2-0=-86.9118338\MP
 4SDQ=-86.9033167\CCSD=-86.9021651\CCSD(T)=-86.9198795\RMSD=6.002e-09\P
 G=OH [O(Cr1)]\\@

 Normal termination of Gaussian 16 at Mon Mar 12 13:12:55 2018.
