 Gaussian 16, Revision A.03,
 Gaussian 16:  ES64L-G16RevA.03 25-Dec-2016

 ----------------------------------------------------------------------
 #P ROCCSD(T)=(maxcyc=150, Full, SaveAmplitudes, ReadAmplitudes)/Gen 5d
  7f SCF=(maxcycles=300) Integral(NoXCTest) MaxDisk=500GB Pop=Regular P
 seudo=Read Guess=Read
 ----------------------------------------------------------------------

 ---
 TiO
 ---
 Symbolic Z-matrix:
 Charge =  0 Multiplicity = 3

                         Standard orientation:
 ---------------------------------------------------------------------
 Center     Atomic      Atomic             Coordinates (Angstroms)
 Number     Number       Type             X           Y           Z
 ---------------------------------------------------------------------
      1         22           0        0.000000    0.000000    0.373333
      2          8           0        0.000000    0.000000   -1.026667
 ---------------------------------------------------------------------

 SCF Done:  E(ROHF) =  -73.2640515851     A.U. after   21 cycles
 E2 =    -0.7706033011D+00 EUMP2 =    -0.74034654886154D+02
 CCSD(T)
 CCSD(T)= -0.74057027533D+02

 Unable to determine electronic state:  an orbital has unidentified symmetry.
 Alpha  occ. eigenvalues --   -2.94953  -1.92379  -1.85333  -1.85333  -1.16415
 Alpha  occ. eigenvalues --   -0.53678  -0.53678  -0.50493  -0.38891  -0.23246
 Alpha virt. eigenvalues --    0.00961   0.00961   0.02025   0.02301   0.03776
 Alpha virt. eigenvalues --    0.03832   0.03855   0.03855   0.03948   0.04400
 Alpha virt. eigenvalues --    0.04400   0.06772   0.10277   0.10451   0.11387

 Mulliken charges and spin densities:
               1          2
     1  Ti   1.031049   1.978776
     2  O   -1.031049   0.021224
 Sum of Mulliken charges =  -0.00000   2.00000

 Dipole moment (field-independent basis, Debye):
    X=              0.0000    Y=              0.0000    Z=              1.8931  Tot=              1.8931
 Quadrupole moment (field-independent basis, Debye-Ang):
   XX=            -21.7466   YY=            -21.7466   ZZ=            -27.7413
   XY=              0.0000   XZ=              0.0000   YZ=              0.0000

 \\#P ROCCSD(T)=(maxcyc=150, Full, SaveAmplitudes, ReadAmplitudes)/Gen
 -0=-74.0346549\CCSD=-74.017748\CCSD(T)=-74.0570275\RMSD=7.299e-09\PG=C
 Normal termination of Gaussian 16 at Fri Mar  9 16:28:30 2018.
