 Gaussian 16, Revision A.03,
 Gaussian 16:  ES64L-G16RevA.03 25-Dec-2016

 ----------------------------------------------------------------------
 #P ROCCSD(T)=(maxcyc=150, Full, SaveAmplitudes, ReadAmplitudes)/Gen 5d
  7f SCF=(maxcycles=300) Integral(NoXCTest) MaxDisk=500GB Pop=Regular P
 seudo=Read Guess=Read IOp(5/15=2)
 ----------------------------------------------------------------------

 ---
 TiO
 ---
 Symbolic Z-matrix:
 Charge =  0 Multiplicity = 3

                         Standard orientation:
 ---------------------------------------------------------------------
 Center     Atomic      Atomic             Coordinates (Angstroms)
 Number     Number       Type             X           Y           Z
 ---------------------------------------------------------------------
      1         22           0        0.000000    0.000000    0.400000
      2          8           0        0.000000    0.000000   -1.100000
 ---------------------------------------------------------------------

 SCF Done:  E(ROHF) =  -73.5405009053     A.U. after   22 cycles
 E2 =    -0.7481189149D+00 EUMP2 =    -0.74288619820163D+02
 CCSD(T)
 CCSD(T)= -0.74314865607D+02

 Unable to determine electronic state:  an orbital has unidentified symmetry.
 Alpha  occ. eigenvalues --   -3.01114  -1.89636  -1.87596  -1.87596  -1.15965
 Alpha  occ. eigenvalues --   -0.48743  -0.48743  -0.48395  -0.42521  -0.25006
 Alpha virt. eigenvalues --    0.00753   0.00753   0.01876   0.02599   0.04410
 Alpha virt. eigenvalues --    0.04410   0.04958   0.05049   0.05236   0.05847
 Alpha virt. eigenvalues --    0.05847   0.07442   0.11333   0.11980   0.14134

 Mulliken charges and spin densities:
               1          2
     1  Ti   0.857566   2.008871
     2  O   -0.857566  -0.008871
 Sum of Mulliken charges =  -0.00000   2.00000

 Dipole moment (field-independent basis, Debye):
    X=              0.0000    Y=              0.0000    Z=              3.1735  Tot=              3.1735
 Quadrupole moment (field-independent basis, Debye-Ang):
   XX=            -21.4398   YY=            -21.4398   ZZ=            -28.1776
   XY=              0.0000   XZ=              0.0000   YZ=              0.0000

 \\#P ROCCSD(T)=(maxcyc=150, Full, SaveAmplitudes, ReadAmplitudes)/Gen
 .2732525\CCSD(T)=-74.3148656\RMSD=3.660e-09\PG=C*V [C*(O1Ti1)]\\@
 Normal termination of Gaussian 16 at Tue Mar 13 00:09:19 2018.
