 Gaussian 16, Revision A.03,
 Gaussian 16:  ES64L-G16RevA.03 25-Dec-2016

 ----------------------------------------------------------------------
 #P ROCCSD(T)=(MaxCyc=150, Full)/Gen SCF=(maxcycle=400) Pseudo=Read Int
 egral(NoXCTest) Pop=Regular MaxDisk=500GB Guess=Read IOp(5/15=2)
 ----------------------------------------------------------------------

 ---
 CoO
 ---
 Symbolic Z-matrix:
 Charge =  0 Multiplicity = 4

                         Standard orientation:
 ---------------------------------------------------------------------
 Center     Atomic      Atomic             Coordinates (Angstroms)
 Number     Number       Type             X           Y           Z
 ---------------------------------------------------------------------
      1         27           0        0.000000    0.000000    0.365714
      2          8           0        0.000000    0.000000   -1.234286
 ---------------------------------------------------------------------

 SCF Done:  E(ROHF) =  -160.618637929     A.U. after   21 cycles
 E2 =    -0.1144717723D+01 EUMP2 =    -0.16176335565167D+03
 CCSD(T)
 CCSD(T)= -0.16178588021D+03

 Unable to determine electronic state:  partially filled degenerate orbitals.
 Alpha  occ. eigenvalues --   -4.70282  -3.22501  -3.22077  -3.22077  -1.15633
 Alpha  occ. eigenvalues --   -0.76320  -0.76320  -0.75119  -0.69928  -0.67173
 Alpha  occ. eigenvalues --   -0.38590  -0.38590  -0.36465
 Alpha virt. eigenvalues --   -0.04734   0.01854   0.01854   0.02034   0.03759
 Alpha virt. eigenvalues --    0.06780   0.06780   0.07079   0.07127   0.07136
 Alpha virt. eigenvalues --    0.08453   0.08453   0.12743   0.14386   0.21052

 Mulliken charges and spin densities:
               1          2
     1  Co   1.021123   2.904066
     2  O   -1.021123   0.095934
 Sum of Mulliken charges =  -0.00000   3.00000

 Dipole moment (field-independent basis, Debye):
    X=              0.0000    Y=              0.0000    Z=              7.7584  Tot=              7.7584
 Quadrupole moment (field-independent basis, Debye-Ang):
   XX=            -18.8076   YY=            -18.8076   ZZ=            -21.3451
   XY=              0.0000   XZ=              0.0000   YZ=              0.0000

 \\#P ROCCSD(T)=(MaxCyc=150, Full)/Gen SCF=(maxcycle=400) Pseudo=Read I
 .7633557\MP4SDQ=-161.7378538\CCSD=-161.7280418\CCSD(T)=-161.7858802\RM
 Normal termination of Gaussian 16 at Sat Mar 31 16:58:29 2018.
