 Gaussian 16, Revision A.03,
 Gaussian 16:  ES64L-G16RevA.03 25-Dec-2016

 ----------------------------------------------------------------------
 #P ROCCSD(T)=(MaxCyc=150, Full)/Gen SCF=(maxcycle=400) Pseudo=Read Int
 egral(NoXCTest) Pop=Regular MaxDisk=500GB Guess=Read IOp(5/15=2)
 ----------------------------------------------------------------------

 ---
 CoO
 ---
 Symbolic Z-matrix:
 Charge =  0 Multiplicity = 4

                         Standard orientation:
 ---------------------------------------------------------------------
 Center     Atomic      Atomic             Coordinates (Angstroms)
 Number     Number       Type             X           Y           Z
 ---------------------------------------------------------------------
      1         27           0        0.000000    0.000000    0.365714
      2          8           0        0.000000    0.000000   -1.234286
 ---------------------------------------------------------------------

 SCF Done:  E(ROHF) =  -160.615594406     A.U. after   25 cycles
 E2 =    -0.1092944936D+01 EUMP2 =    -0.16170853934205D+03
 CCSD(T)
 CCSD(T)= -0.16173386385D+03

 Unable to determine electronic state:  partially filled degenerate orbitals.
 Alpha  occ. eigenvalues --   -4.70335  -3.22534  -3.22108  -3.22108  -1.15677
 Alpha  occ. eigenvalues --   -0.76322  -0.76322  -0.75120  -0.69929  -0.67178
 Alpha  occ. eigenvalues --   -0.38586  -0.38586  -0.36479
 Alpha virt. eigenvalues --   -0.04740   0.02167   0.02167   0.02290   0.04179
 Alpha virt. eigenvalues --    0.07871   0.07871   0.09843   0.10829   0.10858
 Alpha virt. eigenvalues --    0.11730   0.11730   0.15004   0.15381   0.26204

 Mulliken charges and spin densities:
               1          2
     1  Co   1.068181   2.903015
     2  O   -1.068181   0.096985
 Sum of Mulliken charges =  -0.00000   3.00000

 Dipole moment (field-independent basis, Debye):
    X=              0.0000    Y=              0.0000    Z=              7.7684  Tot=              7.7684
 Quadrupole moment (field-independent basis, Debye-Ang):
   XX=            -18.8107   YY=            -18.8107   ZZ=            -21.3644
   XY=              0.0000   XZ=              0.0000   YZ=              0.0000

 \\#P ROCCSD(T)=(MaxCyc=150, Full)/Gen SCF=(maxcycle=400) Pseudo=Read I
 .7085393\MP4SDQ=-161.6888601\CCSD=-161.6782962\CCSD(T)=-161.7338638\RM
 Normal termination of Gaussian 16 at Sat Mar 31 14:42:44 2018.
