 Gaussian 16, Revision A.03,
 Gaussian 16:  ES64L-G16RevA.03 25-Dec-2016

 ----------------------------------------------------------------------
 #P ROCCSD(T)=(MaxCyc=150, Full)/Gen SCF=(maxcycle=400, vshift=200) Pse
 udo=Read Integral(NoXCTest) Pop=Regular MaxDisk=500GB Guess=Read IOp(5
 /15=2)
 ----------------------------------------------------------------------

 ---
 CuH
 ---
 Symbolic Z-matrix:
 Charge =  0 Multiplicity = 1

                         Standard orientation:
 ---------------------------------------------------------------------
 Center     Atomic      Atomic             Coordinates (Angstroms)
 Number     Number       Type             X           Y           Z
 ---------------------------------------------------------------------
      1         29           0        0.000000    0.000000    0.043333
      2          1           0        0.000000    0.000000   -1.256667
 ---------------------------------------------------------------------

 SCF Done:  E(ROHF) =  -195.873349710     A.U. after   17 cycles
 E2 =    -0.1097629437D+01 EUMP2 =    -0.19697097914675D+03
 CCSD(T)
 CCSD(T)= -0.19688658262D+03

 The electronic state is 1-SG.
 Alpha  occ. eigenvalues --   -5.24070  -3.41371  -3.40419  -3.40419  -0.53524
 Alpha  occ. eigenvalues --   -0.51354  -0.51354  -0.50562  -0.50562  -0.33888
 Alpha virt. eigenvalues --    0.00506   0.02968   0.02968   0.03417   0.05828
 Alpha virt. eigenvalues --    0.10053   0.10372   0.10372   0.17253   0.19423
 Alpha virt. eigenvalues --    0.19423   0.20530   0.20530   0.21998   0.25967

 Mulliken charges and spin densities:
               1          2
     1  Cu   0.339235   0.000000
     2  H   -0.339235   0.000000
 Sum of Mulliken charges =  -0.00000   0.00000

 Dipole moment (field-independent basis, Debye):
    X=              0.0000    Y=              0.0000    Z=              3.5657  Tot=              3.5657
 Quadrupole moment (field-independent basis, Debye-Ang):
   XX=            -13.8621   YY=            -13.8621   ZZ=            -15.0373
   XY=              0.0000   XZ=              0.0000   YZ=              0.0000

 P ROCCSD(T)=(MaxCyc=150, Full)/Gen SCF=(maxcycle=400, vshift=200) Pseu
 Normal termination of Gaussian 16 at Sat May  5 21:02:56 2018.
