 Gaussian 16, Revision A.03,
 Gaussian 16:  ES64L-G16RevA.03 25-Dec-2016

 ----------------------------------------------------------------------
 #P ROCCSD(T)=(MaxCyc=150, Full)/Gen SCF=(maxcycle=400, vshift=200) Pse
 udo=Read Integral(NoXCTest) Pop=Regular MaxDisk=500GB Guess=Read IOp(5
 /15=2)
 ----------------------------------------------------------------------

 ---
 CuH
 ---
 Symbolic Z-matrix:
 Charge =  0 Multiplicity = 1

                         Standard orientation:
 ---------------------------------------------------------------------
 Center     Atomic      Atomic             Coordinates (Angstroms)
 Number     Number       Type             X           Y           Z
 ---------------------------------------------------------------------
      1         29           0        0.000000    0.000000    0.043333
      2          1           0        0.000000    0.000000   -1.256667
 ---------------------------------------------------------------------

 SCF Done:  E(ROHF) =  -195.875608917     A.U. after   10 cycles
 E2 =    -0.1149596738D+01 EUMP2 =    -0.19702520565458D+03
 CCSD(T)
 CCSD(T)= -0.19693935819D+03

 The electronic state is 1-SG.
 Alpha  occ. eigenvalues --   -5.24064  -3.41351  -3.40405  -3.40405  -0.53523
 Alpha  occ. eigenvalues --   -0.51359  -0.51359  -0.50570  -0.50570  -0.33891
 Alpha virt. eigenvalues --    0.00479   0.02678   0.02678   0.03094   0.05423
 Alpha virt. eigenvalues --    0.09018   0.09018   0.09064   0.13443   0.13443
 Alpha virt. eigenvalues --    0.13467   0.14002   0.14002   0.20317   0.22568

 Mulliken charges and spin densities:
               1          2
     1  Cu   0.320324   0.000000
     2  H   -0.320324   0.000000
 Sum of Mulliken charges =  -0.00000   0.00000

 Dipole moment (field-independent basis, Debye):
    X=              0.0000    Y=              0.0000    Z=              3.5561  Tot=              3.5561
 Quadrupole moment (field-independent basis, Debye-Ang):
   XX=            -13.8516   YY=            -13.8516   ZZ=            -15.0517
   XY=              0.0000   XZ=              0.0000   YZ=              0.0000

 P ROCCSD(T)=(MaxCyc=150, Full)/Gen SCF=(maxcycle=400, vshift=200) Pseu
 Normal termination of Gaussian 16 at Sat May  5 21:56:02 2018.
