 Gaussian 16, Revision A.03,
 Gaussian 16:  ES64L-G16RevA.03 25-Dec-2016

 ----------------------------------------------------------------------
 #P ROCCSD(T)=(MaxCyc=150, Full)/Gen SCF=(maxcycle=400, vshift=200) Pse
 udo=Read Integral(NoXCTest) Pop=Regular MaxDisk=500GB Guess=Read IOp(5
 /15=2)
 ----------------------------------------------------------------------

 ---
 CuH
 ---
 Symbolic Z-matrix:
 Charge =  0 Multiplicity = 1

                         Standard orientation:
 ---------------------------------------------------------------------
 Center     Atomic      Atomic             Coordinates (Angstroms)
 Number     Number       Type             X           Y           Z
 ---------------------------------------------------------------------
      1         29           0        0.000000    0.000000    0.043333
      2          1           0        0.000000    0.000000   -1.256667
 ---------------------------------------------------------------------

 SCF Done:  E(ROHF) =  -195.875864705     A.U. after   11 cycles
 E2 =    -0.1174673629D+01 EUMP2 =    -0.19705053833382D+03
 CCSD(T)
 CCSD(T)= -0.19696245817D+03

 The electronic state is 1-SG.
 Alpha  occ. eigenvalues --   -5.24064  -3.41350  -3.40404  -3.40404  -0.53523
 Alpha  occ. eigenvalues --   -0.51361  -0.51361  -0.50571  -0.50571  -0.33892
 Alpha virt. eigenvalues --    0.00386   0.02590   0.02590   0.02823   0.04604
 Alpha virt. eigenvalues --    0.07820   0.08650   0.08650   0.12015   0.12015
 Alpha virt. eigenvalues --    0.12051   0.12572   0.12572   0.15293   0.18719

 Mulliken charges and spin densities:
               1          2
     1  Cu   0.295054   0.000000
     2  H   -0.295054   0.000000
 Sum of Mulliken charges =  -0.00000   0.00000

 Dipole moment (field-independent basis, Debye):
    X=              0.0000    Y=              0.0000    Z=              3.5544  Tot=              3.5544
 Quadrupole moment (field-independent basis, Debye-Ang):
   XX=            -13.8500   YY=            -13.8500   ZZ=            -15.0544
   XY=              0.0000   XZ=              0.0000   YZ=              0.0000

 P ROCCSD(T)=(MaxCyc=150, Full)/Gen SCF=(maxcycle=400, vshift=200) Pseu
 Normal termination of Gaussian 16 at Sun May  6 00:41:58 2018.
