 Gaussian 16, Revision A.03,
 Gaussian 16:  ES64L-G16RevA.03 25-Dec-2016

 ----------------------------------------------------------------------
 #P ROCCSD(T)=(maxcyc=150, Full, SaveAmplitudes, ReadAmplitudes)/Gen 5d
  7f SCF=(maxcycles=300) Integral(NoXCTest) MaxDisk=500GB Pop=Regular P
 seudo=Read Guess=Read
 ----------------------------------------------------------------------

 ---
 MnH
 ---
 Symbolic Z-matrix:
 Charge =  0 Multiplicity = 7

                         Standard orientation:
 ---------------------------------------------------------------------
 Center     Atomic      Atomic             Coordinates (Angstroms)
 Number     Number       Type             X           Y           Z
 ---------------------------------------------------------------------
      1         25           0        0.000000    0.000000    0.042308
      2          1           0        0.000000    0.000000   -1.057692
 ---------------------------------------------------------------------

 SCF Done:  E(ROHF) =  -104.064017675     A.U. after   20 cycles
 E2 =    -0.6485059366D+00 EUMP2 =    -0.10471252361158D+03
 CCSD(T)
 CCSD(T)= -0.10473035927D+03

 The electronic state is 7-SG.
 Alpha  occ. eigenvalues --   -4.09466  -2.76713  -2.74966  -2.74966  -0.69717
 Alpha  occ. eigenvalues --   -0.63699  -0.63699  -0.63064  -0.63064  -0.40214
 Alpha  occ. eigenvalues --   -0.23087
 Alpha virt. eigenvalues --    0.01240   0.01240   0.01832   0.03245   0.05036
 Alpha virt. eigenvalues --    0.05036   0.05767   0.05829   0.05829   0.06118
 Alpha virt. eigenvalues --    0.06118   0.08013   0.14026   0.15886   0.17657

 Mulliken charges and spin densities:
               1          2
     1  Mn   0.624539   5.858478
     2  H   -0.624539   0.141522
 Sum of Mulliken charges =  -0.00000   6.00000

 Dipole moment (field-independent basis, Debye):
    X=              0.0000    Y=              0.0000    Z=             -0.6708  Tot=              0.6708
 Quadrupole moment (field-independent basis, Debye-Ang):
   XX=            -15.8701   YY=            -15.8701   ZZ=            -25.2303
   XY=              0.0000   XZ=              0.0000   YZ=              0.0000

 \\#P ROCCSD(T)=(maxcyc=150, Full, SaveAmplitudes, ReadAmplitudes)/Gen
 4.0640177\PMP2-0=-104.7125236\CCSD=-104.7112005\CCSD(T)=-104.7303593\R
 Normal termination of Gaussian 16 at Sun Feb 25 20:33:07 2018.
