 Gaussian 16, Revision A.03,
 Gaussian 16:  ES64L-G16RevA.03 25-Dec-2016

 ----------------------------------------------------------------------
 #P ROCCSD(T)=(maxcyc=150, Full, SaveAmplitudes, ReadAmplitudes)/Gen 5d
  7f SCF=(maxcycles=300) Integral(NoXCTest) MaxDisk=500GB Pop=Regular P
 seudo=Read Guess=Read IOp(5/15=2)
 ----------------------------------------------------------------------

 ---
 CrH
 ---
 Symbolic Z-matrix:
 Charge =  0 Multiplicity = 6

                         Standard orientation:
 ---------------------------------------------------------------------
 Center     Atomic      Atomic             Coordinates (Angstroms)
 Number     Number       Type             X           Y           Z
 ---------------------------------------------------------------------
      1         24           0        0.000000    0.000000    0.064000
      2          1           0        0.000000    0.000000   -1.536000
 ---------------------------------------------------------------------

 SCF Done:  E(ROHF) =  -86.3729248970     A.U. after   28 cycles
 E2 =    -0.5266657862D+00 EUMP2 =    -0.86899590683203D+02
 CCSD(T)
 CCSD(T)= -0.86938205796D+02

 The electronic state is 6-SG.
 Alpha  occ. eigenvalues --   -3.84145  -2.56033  -2.56033  -2.51722  -0.48948
 Alpha  occ. eigenvalues --   -0.48948  -0.46182  -0.46182  -0.42737  -0.26701
 Alpha virt. eigenvalues --    0.01338   0.01338   0.02252   0.02537   0.05493
 Alpha virt. eigenvalues --    0.05493   0.05915   0.07711   0.07711   0.08085
 Alpha virt. eigenvalues --    0.08085   0.08772   0.10300   0.17886   0.20767

 Mulliken charges and spin densities:
               1          2
     1  Cr   0.526641   4.981427
     2  H   -0.526641   0.018573
 Sum of Mulliken charges =  -0.00000   5.00000

 Dipole moment (field-independent basis, Debye):
    X=              0.0000    Y=              0.0000    Z=              1.8380  Tot=              1.8380
 Quadrupole moment (field-independent basis, Debye-Ang):
   XX=            -17.1602   YY=            -17.1602   ZZ=            -23.3124
   XY=              0.0000   XZ=              0.0000   YZ=              0.0000

 \\#P ROCCSD(T)=(maxcyc=150, Full, SaveAmplitudes, ReadAmplitudes)/Gen
 23\CCSD=-86.9213165\CCSD(T)=-86.9382058\RMSD=4.580e-09\PG=C*V [C*(H1Cr
 Normal termination of Gaussian 16 at Mon Feb 26 08:02:37 2018.
