 Gaussian 16, Revision A.03,
 Gaussian 16:  ES64L-G16RevA.03 25-Dec-2016

 ----------------------------------------------------------------------
 #P ROCCSD(T)=(maxcyc=150, Full, SaveAmplitudes, ReadAmplitudes)/Gen 5d
  7f SCF=(maxcycles=300) Integral(NoXCTest) MaxDisk=500GB Pop=Regular P
 seudo=Read Guess=Read
 ----------------------------------------------------------------------

 ---
 CrO
 ---
 Symbolic Z-matrix:
 Charge =  0 Multiplicity = 5

                         Standard orientation:
 ---------------------------------------------------------------------
 Center     Atomic      Atomic             Coordinates (Angstroms)
 Number     Number       Type             X           Y           Z
 ---------------------------------------------------------------------
      1         24           0        0.000000    0.000000    0.325000
      2          8           0        0.000000    0.000000   -0.975000
 ---------------------------------------------------------------------

 SCF Done:  E(ROHF) =  -101.741170494     A.U. after   22 cycles
 E2 =    -0.9184702777D+00 EUMP2 =    -0.10265964077164D+03
 CCSD(T)
 CCSD(T)= -0.10266959235D+03

 Unable to determine electronic state:  an orbital has unidentified symmetry.
 Alpha  occ. eigenvalues --   -3.73227  -2.47977  -2.46745  -2.43777  -1.25529
 Alpha  occ. eigenvalues --   -0.68997  -0.60065  -0.59728  -0.51372  -0.51007
 Alpha  occ. eigenvalues --   -0.35320  -0.27159
 Alpha virt. eigenvalues --    0.01285   0.01958   0.02290   0.02636   0.04747
 Alpha virt. eigenvalues --    0.05015   0.05421   0.05422   0.05520   0.05684
 Alpha virt. eigenvalues --    0.07619   0.08039   0.10332   0.13856   0.14716

 Mulliken charges and spin densities:
               1          2
     1  Cr   0.847913   3.852036
     2  O   -0.847913   0.147964
 Sum of Mulliken charges =   0.00000   4.00000

 Dipole moment (field-independent basis, Debye):
    X=              0.0000    Y=              0.0000    Z=              1.7361  Tot=              1.7361
 Quadrupole moment (field-independent basis, Debye-Ang):
   XX=            -21.5036   YY=            -19.7892   ZZ=            -23.5994
   XY=              0.0000   XZ=              0.0000   YZ=              0.0000

 \\#P ROCCSD(T)=(maxcyc=150, Full, SaveAmplitudes, ReadAmplitudes)/Gen
 MP2-0=-102.6596408\CCSD=-102.6261909\CCSD(T)=-102.6695924\RMSD=5.460e-
 Normal termination of Gaussian 16 at Sat Mar 10 06:06:55 2018.
