 Gaussian 16, Revision A.03,
 Gaussian 16:  ES64L-G16RevA.03 25-Dec-2016

 ----------------------------------------------------------------------
 #P ROCCSD(T)=(maxcyc=150, Full, SaveAmplitudes, ReadAmplitudes)/Gen 5d
  7f SCF=(maxcycles=300) Integral(NoXCTest) MaxDisk=500GB Pop=Regular P
 seudo=Read Guess=Read
 ----------------------------------------------------------------------

 ---
 CrO
 ---
 Symbolic Z-matrix:
 Charge =  0 Multiplicity = 5

                         Standard orientation:
 ---------------------------------------------------------------------
 Center     Atomic      Atomic             Coordinates (Angstroms)
 Number     Number       Type             X           Y           Z
 ---------------------------------------------------------------------
      1         24           0        0.000000    0.000000    0.375000
      2          8           0        0.000000    0.000000   -1.125000
 ---------------------------------------------------------------------

 SCF Done:  E(ROHF) =  -101.837094839     A.U. after   22 cycles
 E2 =    -0.9153836579D+00 EUMP2 =    -0.10275247849657D+03
 CCSD(T)
 CCSD(T)= -0.10277251112D+03

 Unable to determine electronic state:  an orbital has unidentified symmetry.
 Alpha  occ. eigenvalues --   -3.78392  -2.52721  -2.48694  -2.45966  -1.20444
 Alpha  occ. eigenvalues --   -0.63583  -0.57631  -0.56136  -0.50537  -0.48186
 Alpha  occ. eigenvalues --   -0.39796  -0.29981
 Alpha virt. eigenvalues --    0.00713   0.01035   0.01768   0.02767   0.04209
 Alpha virt. eigenvalues --    0.04453   0.05338   0.05339   0.05477   0.05771
 Alpha virt. eigenvalues --    0.06078   0.06482   0.10615   0.13260   0.13296

 Mulliken charges and spin densities:
               1          2
     1  Cr   1.017921   3.900381
     2  O   -1.017921   0.099619
 Sum of Mulliken charges =   0.00000   4.00000

 Dipole moment (field-independent basis, Debye):
    X=              0.0000    Y=              0.0000    Z=              4.4265  Tot=              4.4265
 Quadrupole moment (field-independent basis, Debye-Ang):
   XX=            -20.8715   YY=            -19.7740   ZZ=            -24.5030
   XY=              0.0000   XZ=              0.0000   YZ=              0.0000

 \\#P ROCCSD(T)=(maxcyc=150, Full, SaveAmplitudes, ReadAmplitudes)/Gen
 MP2-0=-102.7524785\CCSD=-102.7229123\CCSD(T)=-102.7725111\RMSD=3.940e-
 Normal termination of Gaussian 16 at Tue Mar 13 05:45:51 2018.
