 Gaussian 16, Revision A.03,
 Gaussian 16:  ES64L-G16RevA.03 25-Dec-2016

 ----------------------------------------------------------------------
 #P ROCCSD(T)=(maxcyc=150, Full)/Gen 5d 7f SCF=(maxcycles=300) Integral
 (NoXCTest, DKHSO) MaxDisk=500GB Pop=Regular IOp(5/15=2) Guess=Read
 ----------------------------------------------------------------------

 ---
 ScH
 ---
 Symbolic Z-matrix:
 Charge =  0 Multiplicity = 1

                         Standard orientation:
 ---------------------------------------------------------------------
 Center     Atomic      Atomic             Coordinates (Angstroms)
 Number     Number       Type             X           Y           Z
 ---------------------------------------------------------------------
      1         21           0        0.000000    0.000000    0.077273
      2          1           0        0.000000    0.000000   -1.622727
 ---------------------------------------------------------------------

 SCF Done:  E(ROHF) =  -763.831851037     A.U. after   11 cycles
 E2 =    -0.7929965926D+00 EUMP2 =    -0.76462484762915D+03
 CCSD(T)
 CCSD(T)= -0.76465990721D+03

 The electronic state is 1-SG.
 Alpha  occ. eigenvalues -- -166.91054 -19.36527 -15.78859 -15.78859 -15.78117
 Alpha  occ. eigenvalues --   -2.67715  -1.65440  -1.65292  -1.65292  -0.41837
 Alpha  occ. eigenvalues --   -0.22935
 Alpha virt. eigenvalues --    0.01138   0.01138   0.01528   0.01664   0.02602
 Alpha virt. eigenvalues --    0.02602   0.02649   0.02649   0.02679   0.04077
 Alpha virt. eigenvalues --    0.04079   0.04079   0.06978   0.07001   0.07001

 Mulliken charges and spin densities:
               1          2
     1  Sc   0.385112   0.000000
     2  H   -0.385112   0.000000
 Sum of Mulliken charges =  -0.00000   0.00000

 Dipole moment (field-independent basis, Debye):
    X=              0.0000    Y=              0.0000    Z=              1.1330  Tot=              1.1330
 Quadrupole moment (field-independent basis, Debye-Ang):
   XX=            -23.5511   YY=            -23.5511   ZZ=            -26.6521
   XY=             -0.0000   XZ=              0.0000   YZ=             -0.0000

 P ROCCSD(T)=(maxcyc=150, Full)/Gen 5d 7f SCF=(maxcycles=300) Integral(
 2-0=-764.6248476\MP4SDQ=-764.6395295\CCSD=-764.6398329\CCSD(T)=-764.65
 Normal termination of Gaussian 16 at Tue Feb 13 20:22:48 2018.
