 Gaussian 16, Revision A.03,
 Gaussian 16:  ES64L-G16RevA.03 25-Dec-2016

 ----------------------------------------------------------------------
 #P ROCCSD(T)=(maxcyc=150, Full)/Gen 5d 7f SCF=(maxcycles=300, NoVarAcc
 , VShift=200) Integral(NoXCTest, DKHSO) MaxDisk=100GB Pop=Regular Gues
 s=Read
 ----------------------------------------------------------------------

 --
 Ti
 --
 Symbolic Z-matrix:
 Charge =  0 Multiplicity = 3

                         Standard orientation:
 ---------------------------------------------------------------------
 Center     Atomic      Atomic             Coordinates (Angstroms)
 Number     Number       Type             X           Y           Z
 ---------------------------------------------------------------------
      1         22           0        0.000000    0.000000    0.000000
 ---------------------------------------------------------------------

 SCF Done:  E(ROHF) =  -852.750145533     A.U. after   13 cycles
 E2 =    -0.7726290098D+00 EUMP2 =    -0.85352277454271D+03
 CCSD(T)
 CCSD(T)= -0.85355139714D+03

 Unable to determine electronic state:  an orbital has unidentified symmetry.
 Alpha  occ. eigenvalues -- -184.40163 -21.66542 -17.83268 -17.83268 -17.83268
 Alpha  occ. eigenvalues --   -2.96747  -1.87517  -1.87517  -1.87517  -0.43403
 Alpha  occ. eigenvalues --   -0.43403  -0.23033
 Alpha virt. eigenvalues --    0.01449   0.01449   0.01449   0.02393   0.05307
 Alpha virt. eigenvalues --    0.05307   0.05307   0.05381   0.05381   0.05381
 Alpha virt. eigenvalues --    0.05464   0.05464   0.12306   0.12399   0.12399

 Mulliken charges and spin densities:
               1          2
     1  Ti   0.000000   2.000000
 Sum of Mulliken charges =   0.00000   2.00000

 Dipole moment (field-independent basis, Debye):
    X=              0.0000    Y=             -0.0000    Z=             -0.0000  Tot=              0.0000
 Quadrupole moment (field-independent basis, Debye-Ang):
   XX=            -22.3115   YY=            -22.3115   ZZ=            -22.3115
   XY=              0.0000   XZ=              0.0000   YZ=              0.0000

 1\1\GINC-C506-013\SP\ROCCSD(T)-Full\Gen\Ti1(3)\AANNABE\12-Mar-2018\0\\
 #P ROCCSD(T)=(maxcyc=150, Full)/Gen 5d 7f SCF=(maxcycles=300, NoVarAcc
 , VShift=200) Integral(NoXCTest, DKHSO) MaxDisk=100GB Pop=Regular Gues
 s=Read\\Ti\\0,3\Ti,0,0.,0.,0.\\Version=ES64L-G16RevA.03\HF=-852.750145
 5\MP2=-853.5227745\MP3=-853.5344625\PUHF=-852.7501455\PMP2-0=-853.5227
 745\MP4SDQ=-853.535138\CCSD=-853.5354421\CCSD(T)=-853.5513971\RMSD=6.6
 73e-09\PG=OH [O(Ti1)]\\@

 Normal termination of Gaussian 16 at Mon Mar 12 17:28:54 2018.
