 Gaussian 16, Revision A.03,
 Gaussian 16:  ES64L-G16RevA.03 25-Dec-2016

 ----------------------------------------------------------------------
 #P ROHF/Gen 5d 7f SCF=(maxcycles=300, VShift=100) Integral(NoXCTest, D
 KHSO) MaxDisk=100GB Pop=Regular
 ----------------------------------------------------------------------

 --
 Ti
 --
 Symbolic Z-matrix:
 Charge =  0 Multiplicity = 3

                         Standard orientation:
 ---------------------------------------------------------------------
 Center     Atomic      Atomic             Coordinates (Angstroms)
 Number     Number       Type             X           Y           Z
 ---------------------------------------------------------------------
      1         22           0        0.000000    0.000000    0.000000
 ---------------------------------------------------------------------

 SCF Done:  E(ROHF) =  -852.738956613     A.U. after   21 cycles

 Unable to determine electronic state:  an orbital has unidentified symmetry.
 Alpha  occ. eigenvalues -- -184.40462 -21.64755 -17.81911 -17.81911 -17.80432
 Alpha  occ. eigenvalues --   -2.88679  -1.78128  -1.78128  -1.75809  -0.22015
 Alpha  occ. eigenvalues --   -0.05127  -0.05127
 Alpha virt. eigenvalues --    0.01469   0.01469   0.01601   0.02415   0.05290
 Alpha virt. eigenvalues --    0.05290   0.05347   0.05435   0.05435   0.05492
 Alpha virt. eigenvalues --    0.05492   0.05660   0.12087   0.12087   0.12404

 Mulliken charges and spin densities:
               1          2
     1  Ti  -0.000000   2.000000
 Sum of Mulliken charges =  -0.00000   2.00000

 Dipole moment (field-independent basis, Debye):
    X=              0.0000    Y=              0.0000    Z=              0.0000  Tot=              0.0000
 Quadrupole moment (field-independent basis, Debye-Ang):
   XX=            -22.4648   YY=            -22.2243   ZZ=            -22.2243
   XY=             -0.0000   XZ=              0.0000   YZ=              0.0000

 Normal termination of Gaussian 16 at Mon Mar 12 10:53:59 2018.
