 Gaussian 16, Revision A.03,
 Gaussian 16:  ES64L-G16RevA.03 25-Dec-2016

 ----------------------------------------------------------------------
 #P ROCCSD(T)=(maxcyc=150, Full)/Gen 5d 7f SCF=(maxcycles=300) Integral
 (NoXCTest) MaxDisk=500GB Pop=Regular Pseudo=Read Guess=Read
 ----------------------------------------------------------------------

 ---
 ScH
 ---
 Symbolic Z-matrix:
 Charge =  0 Multiplicity = 1

                         Standard orientation:
 ---------------------------------------------------------------------
 Center     Atomic      Atomic             Coordinates (Angstroms)
 Number     Number       Type             X           Y           Z
 ---------------------------------------------------------------------
      1         21           0        0.000000    0.000000    0.100000
      2          1           0        0.000000    0.000000   -2.100000
 ---------------------------------------------------------------------

 SCF Done:  E(ROHF) =  -46.6407381662     A.U. after   10 cycles
 E2 =    -0.4180183624D+00 EUMP2 =    -0.47058756528615D+02
 CCSD(T)
 CCSD(T)= -0.47107284436D+02

 The electronic state is 1-SG.
 Alpha  occ. eigenvalues --   -2.72028  -1.69566  -1.69566  -1.69368  -0.35676
 Alpha  occ. eigenvalues --   -0.24623
 Alpha virt. eigenvalues --    0.00830   0.00830   0.00954   0.02085   0.02794
 Alpha virt. eigenvalues --    0.02794   0.02959   0.02959   0.03050   0.03442
 Alpha virt. eigenvalues --    0.03739   0.03739   0.06154   0.06154   0.07177

 Mulliken charges and spin densities:
               1          2
     1  Sc   0.268709   0.000000
     2  H   -0.268709   0.000000
 Sum of Mulliken charges =  -0.00000   0.00000

 Dipole moment (field-independent basis, Debye):
    X=              0.0000    Y=              0.0000    Z=              2.9977  Tot=              2.9977
 Quadrupole moment (field-independent basis, Debye-Ang):
   XX=            -22.8591   YY=            -22.8591   ZZ=            -30.0557
   XY=              0.0000   XZ=              0.0000   YZ=              0.0000

 P ROCCSD(T)=(maxcyc=150, Full)/Gen 5d 7f SCF=(maxcycles=300) Integral(
 587565\MP4SDQ=-47.0855836\CCSD=-47.0864439\CCSD(T)=-47.1072844\RMSD=4.
 Normal termination of Gaussian 16 at Tue Feb 13 11:43:47 2018.
