 Gaussian 16, Revision A.03,
 Gaussian 16:  ES64L-G16RevA.03 25-Dec-2016

 ----------------------------------------------------------------------
 #P ROCCSD(T)=(MaxCyc=150, Full)/Gen SCF=(maxcycle=400) Pseudo=Read Int
 egral(NoXCTest) Pop=Regular MaxDisk=500GB Guess=Read IOp(5/15=2)
 ----------------------------------------------------------------------

 ---
 CuO
 ---
 Symbolic Z-matrix:
 Charge =  0 Multiplicity = 2

                         Standard orientation:
 ---------------------------------------------------------------------
 Center     Atomic      Atomic             Coordinates (Angstroms)
 Number     Number       Type             X           Y           Z
 ---------------------------------------------------------------------
      1         29           0        0.000000    0.000000    0.367568
      2          8           0        0.000000    0.000000   -1.332432
 ---------------------------------------------------------------------

 SCF Done:  E(ROHF) =  -211.949752738     A.U. after   16 cycles
 E2 =    -0.1278810426D+01 EUMP2 =    -0.21322856316406D+03
 CCSD(T)
 CCSD(T)= -0.21316298074D+03

 Unable to determine electronic state:  an orbital has unidentified symmetry.
 Alpha  occ. eigenvalues --   -5.26421  -3.46947  -3.46530  -3.46241  -1.24600
 Alpha  occ. eigenvalues --   -0.58322  -0.55154  -0.54606  -0.52160  -0.52158
 Alpha  occ. eigenvalues --   -0.47825  -0.41843  -0.40115
 Alpha virt. eigenvalues --   -0.01151   0.02870   0.03030   0.04004   0.04693
 Alpha virt. eigenvalues --    0.10423   0.10770   0.13641   0.19412   0.19583
 Alpha virt. eigenvalues --    0.19609   0.20834   0.21611   0.22675   0.26054

 Mulliken charges and spin densities:
               1          2
     1  Cu   0.824650   0.020191
     2  O   -0.824650   0.979809
 Sum of Mulliken charges =   0.00000   1.00000

 Dipole moment (field-independent basis, Debye):
    X=              0.0000    Y=              0.0000    Z=              5.6312  Tot=              5.6312
 Quadrupole moment (field-independent basis, Debye-Ang):
   XX=            -15.6223   YY=            -17.1693   ZZ=            -20.1304
   XY=              0.0000   XZ=              0.0000   YZ=              0.0000

 \\#P ROCCSD(T)=(MaxCyc=150, Full)/Gen SCF=(maxcycle=400) Pseudo=Read I
 .2285632\MP4SDQ=-213.1927795\CCSD=-213.1168016\CCSD(T)=-213.1629807\RM
 Normal termination of Gaussian 16 at Mon Mar 26 18:28:01 2018.
