 Gaussian 16, Revision A.03,
 Gaussian 16:  ES64L-G16RevA.03 25-Dec-2016

 ----------------------------------------------------------------------
 #P ROCCSD(T)=(MaxCyc=150, Full)/Gen SCF=(maxcycle=400) Pseudo=Read Int
 egral(NoXCTest) Pop=Regular MaxDisk=500GB Guess=Read IOp(5/15=2)
 ----------------------------------------------------------------------

 ---
 CuO
 ---
 Symbolic Z-matrix:
 Charge =  0 Multiplicity = 2

                         Standard orientation:
 ---------------------------------------------------------------------
 Center     Atomic      Atomic             Coordinates (Angstroms)
 Number     Number       Type             X           Y           Z
 ---------------------------------------------------------------------
      1         29           0        0.000000    0.000000    0.367568
      2          8           0        0.000000    0.000000   -1.332432
 ---------------------------------------------------------------------

 SCF Done:  E(ROHF) =  -211.953410795     A.U. after   19 cycles
 E2 =    -0.1342712971D+01 EUMP2 =    -0.21329612376544D+03
 CCSD(T)
 CCSD(T)= -0.21322771138D+03

 Unable to determine electronic state:  an orbital has unidentified symmetry.
 Alpha  occ. eigenvalues --   -5.26417  -3.46929  -3.46518  -3.46232  -1.24537
 Alpha  occ. eigenvalues --   -0.58327  -0.55155  -0.54591  -0.52160  -0.52159
 Alpha  occ. eigenvalues --   -0.47826  -0.41847  -0.40105
 Alpha virt. eigenvalues --   -0.01153   0.02556   0.02686   0.03539   0.04466
 Alpha virt. eigenvalues --    0.08927   0.09194   0.11738   0.13405   0.13412
 Alpha virt. eigenvalues --    0.14430   0.14509   0.14969   0.19031   0.21396

 Mulliken charges and spin densities:
               1          2
     1  Cu   0.746413   0.020910
     2  O   -0.746413   0.979090
 Sum of Mulliken charges =  -0.00000   1.00000

 Dipole moment (field-independent basis, Debye):
    X=              0.0000    Y=              0.0000    Z=              5.6165  Tot=              5.6165
 Quadrupole moment (field-independent basis, Debye-Ang):
   XX=            -15.6129   YY=            -17.1425   ZZ=            -20.1439
   XY=              0.0000   XZ=              0.0000   YZ=              0.0000

 \\#P ROCCSD(T)=(MaxCyc=150, Full)/Gen SCF=(maxcycle=400) Pseudo=Read I
 .2961238\MP4SDQ=-213.2543303\CCSD=-213.1790248\CCSD(T)=-213.2277114\RM
 Normal termination of Gaussian 16 at Mon Mar 26 20:56:48 2018.
