 Gaussian 16, Revision A.03,
 Gaussian 16:  ES64L-G16RevA.03 25-Dec-2016

 ----------------------------------------------------------------------
 #P ROCCSD(T)=(maxcyc=150, Full)/Gen 5d 7f SCF=(maxcycles=300, NoVarAcc
 , VShift=300) MaxDisk=100GB Pop=Regular Pseudo=Read Guess=Read IOp(5/1
 5=2)
 ----------------------------------------------------------------------

 --
 Mn
 --
 Symbolic Z-matrix:
 Charge =  0 Multiplicity = 6

                         Standard orientation:
 ---------------------------------------------------------------------
 Center     Atomic      Atomic             Coordinates (Angstroms)
 Number     Number       Type             X           Y           Z
 ---------------------------------------------------------------------
      1         25           0        0.000000    0.000000    0.000000
 ---------------------------------------------------------------------

 SCF Done:  E(ROHF) =  -103.244280876     A.U. after   19 cycles
 E2 =    -0.6111729063D+00 EUMP2 =    -0.10385545378239D+03
 CCSD(T)
 CCSD(T)= -0.10387334769D+03

 The electronic state is 6-A1G.
 Alpha  occ. eigenvalues --   -4.13754  -2.75773  -2.75773  -2.75773  -0.62915
 Alpha  occ. eigenvalues --   -0.62915  -0.62915  -0.62915  -0.62915  -0.26840
 Alpha virt. eigenvalues --    0.01720   0.01720   0.01720   0.02123   0.05598
 Alpha virt. eigenvalues --    0.05598   0.05598   0.05598   0.05598   0.05635
 Alpha virt. eigenvalues --    0.05635   0.05635   0.10423   0.17440   0.17440

 Mulliken charges and spin densities:
               1          2
     1  Mn  -0.000000   5.000000
 Sum of Mulliken charges =  -0.00000   5.00000

 Dipole moment (field-independent basis, Debye):
    X=              0.0000    Y=              0.0000    Z=              0.0000  Tot=              0.0000
 Quadrupole moment (field-independent basis, Debye-Ang):
   XX=            -18.8318   YY=            -18.8318   ZZ=            -18.8318
   XY=              0.0000   XZ=              0.0000   YZ=             -0.0000

 1\1\GINC-C506-044\SP\ROCCSD(T)-Full\Gen\Mn1(6)\AANNABE\04-May-2018\0\\
 #P ROCCSD(T)=(maxcyc=150, Full)/Gen 5d 7f SCF=(maxcycles=300, NoVarAcc
 , VShift=300) MaxDisk=100GB Pop=Regular Pseudo=Read Guess=Read IOp(5/1
 5=2)\\Mn\\0,6\Mn,0,0.,0.,0.\\Version=ES64L-G16RevA.03\State=6-A1G\HF=-
 103.2442809\MP2=-103.8554538\MP3=-103.8518102\PUHF=-103.2442809\PMP2-0
 =-103.8554538\MP4SDQ=-103.8541856\CCSD=-103.8543444\CCSD(T)=-103.87334
 77\RMSD=8.858e-09\PG=OH [O(Mn1)]\\@

 Normal termination of Gaussian 16 at Fri May  4 14:50:40 2018.
