 Gaussian 16, Revision A.03,
 Gaussian 16:  ES64L-G16RevA.03 25-Dec-2016

 ----------------------------------------------------------------------
 #P ROCCSD(T)=(maxcyc=150, Full, SaveAmplitudes, ReadAmplitudes)/Gen 5d
  7f SCF=(maxcycles=300) Integral(NoXCTest) MaxDisk=500GB Pop=Regular P
 seudo=Read Guess=Read IOp(5/15=2)
 ----------------------------------------------------------------------

 ---
 TiO
 ---
 Symbolic Z-matrix:
 Charge =  0 Multiplicity = 3

                         Standard orientation:
 ---------------------------------------------------------------------
 Center     Atomic      Atomic             Coordinates (Angstroms)
 Number     Number       Type             X           Y           Z
 ---------------------------------------------------------------------
      1         22           0        0.000000    0.000000    0.373333
      2          8           0        0.000000    0.000000   -1.026667
 ---------------------------------------------------------------------

 SCF Done:  E(ROHF) =  -73.3660203351     A.U. after   23 cycles
 E2 =    -0.7383304442D+00 EUMP2 =    -0.74104350779302D+02
 CCSD(T)
 CCSD(T)= -0.74129647022D+02

 Unable to determine electronic state:  an orbital has unidentified symmetry.
 Alpha  occ. eigenvalues --   -2.96398  -1.92117  -1.85129  -1.85129  -1.16463
 Alpha  occ. eigenvalues --   -0.53590  -0.53590  -0.50435  -0.39130  -0.23295
 Alpha virt. eigenvalues --    0.01004   0.01004   0.02200   0.02531   0.04633
 Alpha virt. eigenvalues --    0.04633   0.04996   0.05112   0.05282   0.05818
 Alpha virt. eigenvalues --    0.05818   0.08105   0.11538   0.12914   0.14378

 Mulliken charges and spin densities:
               1          2
     1  Ti   0.789366   2.023905
     2  O   -0.789366  -0.023905
 Sum of Mulliken charges =  -0.00000   2.00000

 Dipole moment (field-independent basis, Debye):
    X=              0.0000    Y=              0.0000    Z=              1.9155  Tot=              1.9155
 Quadrupole moment (field-independent basis, Debye-Ang):
   XX=            -21.6934   YY=            -21.6934   ZZ=            -27.7438
   XY=              0.0000   XZ=              0.0000   YZ=              0.0000

 \\#P ROCCSD(T)=(maxcyc=150, Full, SaveAmplitudes, ReadAmplitudes)/Gen
 .0919192\CCSD(T)=-74.129647\RMSD=3.654e-09\PG=C*V [C*(O1Ti1)]\\@
 Normal termination of Gaussian 16 at Fri Mar  9 15:41:43 2018.
