 Gaussian 16, Revision A.03,
 Gaussian 16:  ES64L-G16RevA.03 25-Dec-2016

 ----------------------------------------------------------------------
 #P ROCCSD(T)=(maxcyc=150, Full, SaveAmplitudes, ReadAmplitudes)/Gen 5d
  7f SCF=(maxcycles=300) Integral(NoXCTest) MaxDisk=500GB Pop=Regular P
 seudo=Read Guess=Read
 ----------------------------------------------------------------------

 ---
 CrO
 ---
 Symbolic Z-matrix:
 Charge =  0 Multiplicity = 5

                         Standard orientation:
 ---------------------------------------------------------------------
 Center     Atomic      Atomic             Coordinates (Angstroms)
 Number     Number       Type             X           Y           Z
 ---------------------------------------------------------------------
      1         24           0        0.000000    0.000000    0.325000
      2          8           0        0.000000    0.000000   -0.975000
 ---------------------------------------------------------------------

 SCF Done:  E(ROHF) =  -101.725076481     A.U. after   22 cycles
 E2 =    -0.9200001854D+00 EUMP2 =    -0.10264507666633D+03
 CCSD(T)
 CCSD(T)= -0.10265470385D+03

 Unable to determine electronic state:  an orbital has unidentified symmetry.
 Alpha  occ. eigenvalues --   -3.74919  -2.48540  -2.47333  -2.44319  -1.24598
 Alpha  occ. eigenvalues --   -0.69132  -0.60093  -0.59701  -0.51488  -0.51113
 Alpha  occ. eigenvalues --   -0.35464  -0.27013
 Alpha virt. eigenvalues --    0.01286   0.01967   0.02280   0.02636   0.04754
 Alpha virt. eigenvalues --    0.05015   0.05419   0.05420   0.05516   0.05685
 Alpha virt. eigenvalues --    0.07585   0.08063   0.10347   0.13868   0.14732

 Mulliken charges and spin densities:
               1          2
     1  Cr   0.864918   3.875645
     2  O   -0.864918   0.124355
 Sum of Mulliken charges =  -0.00000   4.00000

 Dipole moment (field-independent basis, Debye):
    X=              0.0000    Y=              0.0000    Z=              1.7190  Tot=              1.7190
 Quadrupole moment (field-independent basis, Debye-Ang):
   XX=            -21.5260   YY=            -19.8410   ZZ=            -23.6787
   XY=              0.0000   XZ=              0.0000   YZ=              0.0000

 \\#P ROCCSD(T)=(maxcyc=150, Full, SaveAmplitudes, ReadAmplitudes)/Gen
 MP2-0=-102.6450767\CCSD=-102.6110693\CCSD(T)=-102.6547039\RMSD=7.730e-
 Normal termination of Gaussian 16 at Tue Mar 13 04:29:37 2018.
