 Gaussian 16, Revision A.03,
 Gaussian 16:  ES64L-G16RevA.03 25-Dec-2016

 ----------------------------------------------------------------------
 #P ROCCSD(T)=(maxcyc=150, Full)/Gen 5d 7f SCF=(maxcycles=300) Integral
 (NoXCTest) MaxDisk=500GB Pop=Regular Pseudo=Read
 ----------------------------------------------------------------------

 ---
 ScH
 ---
 Symbolic Z-matrix:
 Charge =  0 Multiplicity = 1

                         Standard orientation:
 ---------------------------------------------------------------------
 Center     Atomic      Atomic             Coordinates (Angstroms)
 Number     Number       Type             X           Y           Z
 ---------------------------------------------------------------------
      1         21           0        0.000000    0.000000    0.100000
      2          1           0        0.000000    0.000000   -2.100000
 ---------------------------------------------------------------------

 SCF Done:  E(ROHF) =  -46.6403798580     A.U. after   13 cycles
 E2 =    -0.4038360479D+00 EUMP2 =    -0.47044215905963D+02
 CCSD(T)
 CCSD(T)= -0.47094328390D+02

 The electronic state is 1-SG.
 Alpha  occ. eigenvalues --   -2.72046  -1.69588  -1.69588  -1.69389  -0.35678
 Alpha  occ. eigenvalues --   -0.24623
 Alpha virt. eigenvalues --    0.00864   0.00864   0.01014   0.02317   0.03589
 Alpha virt. eigenvalues --    0.03714   0.03714   0.03950   0.03950   0.04009
 Alpha virt. eigenvalues --    0.04178   0.04178   0.06790   0.06790   0.07983

 Mulliken charges and spin densities:
               1          2
     1  Sc   0.304457   0.000000
     2  H   -0.304457   0.000000
 Sum of Mulliken charges =   0.00000   0.00000

 Dipole moment (field-independent basis, Debye):
    X=              0.0000    Y=              0.0000    Z=              2.9937  Tot=              2.9937
 Quadrupole moment (field-independent basis, Debye-Ang):
   XX=            -22.8663   YY=            -22.8663   ZZ=            -30.0615
   XY=              0.0000   XZ=              0.0000   YZ=              0.0000

 P ROCCSD(T)=(maxcyc=150, Full)/Gen 5d 7f SCF=(maxcycles=300) Integral(
 DQ=-47.0739342\CCSD=-47.0745309\CCSD(T)=-47.0943284\RMSD=1.436e-09\PG=
 Normal termination of Gaussian 16 at Tue Feb 13 11:20:19 2018.
