 Gaussian 16, Revision A.03,
 Gaussian 16:  ES64L-G16RevA.03 25-Dec-2016

 ----------------------------------------------------------------------
 #P ROCCSD(T)=(maxcyc=150, Full)/Gen 5d 7f SCF=(maxcycles=300) Integral
 (NoXCTest) MaxDisk=500GB Pop=Regular Pseudo=Read Guess=Read
 ----------------------------------------------------------------------

 ---
 ScH
 ---
 Symbolic Z-matrix:
 Charge =  0 Multiplicity = 1

                         Standard orientation:
 ---------------------------------------------------------------------
 Center     Atomic      Atomic             Coordinates (Angstroms)
 Number     Number       Type             X           Y           Z
 ---------------------------------------------------------------------
      1         21           0        0.000000    0.000000    0.072727
      2          1           0        0.000000    0.000000   -1.527273
 ---------------------------------------------------------------------

 SCF Done:  E(ROHF) =  -46.6552625675     A.U. after   11 cycles
 E2 =    -0.4250760421D+00 EUMP2 =    -0.47080338609640D+02
 CCSD(T)
 CCSD(T)= -0.47122053973D+02

 The electronic state is 1-SG.
 Alpha  occ. eigenvalues --   -2.66700  -1.64995  -1.64510  -1.64510  -0.42982
 Alpha  occ. eigenvalues --   -0.22568
 Alpha virt. eigenvalues --    0.01194   0.01194   0.01549   0.01908   0.02869
 Alpha virt. eigenvalues --    0.02869   0.02910   0.02910   0.02926   0.04216
 Alpha virt. eigenvalues --    0.04216   0.04391   0.07696   0.07696   0.07895

 Mulliken charges and spin densities:
               1          2
     1  Sc   0.276729   0.000000
     2  H   -0.276729   0.000000
 Sum of Mulliken charges =  -0.00000   0.00000

 Dipole moment (field-independent basis, Debye):
    X=              0.0000    Y=              0.0000    Z=              0.9768  Tot=              0.9768
 Quadrupole moment (field-independent basis, Debye-Ang):
   XX=            -23.2261   YY=            -23.2261   ZZ=            -25.2870
   XY=              0.0000   XZ=              0.0000   YZ=              0.0000

 P ROCCSD(T)=(maxcyc=150, Full)/Gen 5d 7f SCF=(maxcycles=300) Integral(
 803386\MP4SDQ=-47.1033526\CCSD=-47.1030338\CCSD(T)=-47.122054\RMSD=9.4
 Normal termination of Gaussian 16 at Tue Feb 13 01:26:21 2018.
