 Gaussian 16, Revision A.03,
 Gaussian 16:  ES64L-G16RevA.03 25-Dec-2016

 ----------------------------------------------------------------------
 #P ROCCSD(T)=(maxcyc=150, Full, SaveAmplitudes, ReadAmplitudes)/Gen 5d
  7f SCF=(maxcycles=300) Integral(NoXCTest) MaxDisk=500GB Pop=Regular P
 seudo=Read Guess=Read IOp(5/15=2)
 ----------------------------------------------------------------------

 ---
 CrO
 ---
 Symbolic Z-matrix:
 Charge =  0 Multiplicity = 5

                         Standard orientation:
 ---------------------------------------------------------------------
 Center     Atomic      Atomic             Coordinates (Angstroms)
 Number     Number       Type             X           Y           Z
 ---------------------------------------------------------------------
      1         24           0        0.000000    0.000000    0.375000
      2          8           0        0.000000    0.000000   -1.125000
 ---------------------------------------------------------------------

 SCF Done:  E(ROHF) =  -101.875422475     A.U. after   28 cycles
 E2 =    -0.8761166920D+00 EUMP2 =    -0.10275153916729D+03
 CCSD(T)
 CCSD(T)= -0.10277398283D+03

 Unable to determine electronic state:  an orbital has unidentified symmetry.
 Alpha  occ. eigenvalues --   -3.78504  -2.52739  -2.48716  -2.45989  -1.21358
 Alpha  occ. eigenvalues --   -0.63585  -0.57652  -0.56159  -0.50534  -0.48157
 Alpha  occ. eigenvalues --   -0.39795  -0.29987
 Alpha virt. eigenvalues --    0.00753   0.01205   0.01914   0.03181   0.04634
 Alpha virt. eigenvalues --    0.04934   0.06331   0.07610   0.07619   0.08014
 Alpha virt. eigenvalues --    0.08436   0.08584   0.12840   0.14425   0.16744

 Mulliken charges and spin densities:
               1          2
     1  Cr   1.038207   3.838877
     2  O   -1.038207   0.161123
 Sum of Mulliken charges =  -0.00000   4.00000

 Dipole moment (field-independent basis, Debye):
    X=              0.0000    Y=              0.0000    Z=              4.4265  Tot=              4.4265
 Quadrupole moment (field-independent basis, Debye-Ang):
   XX=            -20.8542   YY=            -19.7575   ZZ=            -24.5071
   XY=              0.0000   XZ=              0.0000   YZ=              0.0000

 \\#P ROCCSD(T)=(maxcyc=150, Full, SaveAmplitudes, ReadAmplitudes)/Gen
 SD=-102.7262343\CCSD(T)=-102.7739828\RMSD=6.602e-09\PG=C*V [C*(O1Cr1)]
 Normal termination of Gaussian 16 at Tue Mar 13 04:13:34 2018.
