 Gaussian 16, Revision A.03,
 Gaussian 16:  ES64L-G16RevA.03 25-Dec-2016

 ----------------------------------------------------------------------
 #P ROCCSD(T)=(MaxCyc=150, Full)/Gen SCF=(maxcycle=400) Pseudo=Read Int
 egral(NoXCTest) Pop=Regular MaxDisk=500GB Guess=Read IOp(5/15=2)
 ----------------------------------------------------------------------

 ---
 ZnO
 ---
 Symbolic Z-matrix:
 Charge =  0 Multiplicity = 1

                         Standard orientation:
 ---------------------------------------------------------------------
 Center     Atomic      Atomic             Coordinates (Angstroms)
 Number     Number       Type             X           Y           Z
 ---------------------------------------------------------------------
      1         30           0        0.000000    0.000000    0.252632
      2          8           0        0.000000    0.000000   -0.947368
 ---------------------------------------------------------------------

 SCF Done:  E(ROHF) =  -240.881649834     A.U. after    1 cycles
 E2 =    -0.1353698900D+01 EUMP2 =    -0.24223534873397D+03
 CCSD(T)
 CCSD(T)= -0.24216116480D+03

 The electronic state is 1-SG.
 Alpha  occ. eigenvalues --   -5.98358  -4.13309  -4.07877  -4.07877  -1.36188
 Alpha  occ. eigenvalues --   -0.95296  -0.95296  -0.86304  -0.86304  -0.82846
 Alpha  occ. eigenvalues --   -0.46229  -0.46229  -0.37928
 Alpha virt. eigenvalues --   -0.00811   0.03252   0.03252   0.04069   0.04427
 Alpha virt. eigenvalues --    0.10889   0.10889   0.13538   0.19363   0.20993
 Alpha virt. eigenvalues --    0.21740   0.21740   0.25753   0.25753   0.30859

 Mulliken charges and spin densities:
               1          2
     1  Zn   1.271010   0.000000
     2  O   -1.271010   0.000000
 Sum of Mulliken charges =   0.00000   0.00000

 Dipole moment (field-independent basis, Debye):
    X=              0.0000    Y=              0.0000    Z=              4.3903  Tot=              4.3903
 Quadrupole moment (field-independent basis, Debye-Ang):
   XX=            -18.2373   YY=            -18.2373   ZZ=            -19.2135
   XY=              0.0000   XZ=              0.0000   YZ=              0.0000

 P ROCCSD(T)=(MaxCyc=150, Full)/Gen SCF=(maxcycle=400) Pseudo=Read Inte
 2-0=-242.2353487\MP4SDQ=-242.1591123\CCSD=-242.114212\CCSD(T)=-242.161
 Normal termination of Gaussian 16 at Tue Mar 27 11:48:50 2018.
