 Gaussian 16, Revision A.03,
 Gaussian 16:  ES64L-G16RevA.03 25-Dec-2016

 ----------------------------------------------------------------------
 #P ROCCSD(T)=(MaxCyc=150, Full)/Gen SCF=(maxcycle=400) Pseudo=Read Int
 egral(NoXCTest) Pop=Regular MaxDisk=500GB Guess=Read IOp(5/15=2)
 ----------------------------------------------------------------------

 ---
 ZnO
 ---
 Symbolic Z-matrix:
 Charge =  0 Multiplicity = 1

                         Standard orientation:
 ---------------------------------------------------------------------
 Center     Atomic      Atomic             Coordinates (Angstroms)
 Number     Number       Type             X           Y           Z
 ---------------------------------------------------------------------
      1         30           0        0.000000    0.000000    0.252632
      2          8           0        0.000000    0.000000   -0.947368
 ---------------------------------------------------------------------

 SCF Done:  E(ROHF) =  -240.885217633     A.U. after   11 cycles
 E2 =    -0.1422846564D+01 EUMP2 =    -0.24230806419744D+03
 CCSD(T)
 CCSD(T)= -0.24223177750D+03

 The electronic state is 1-SG.
 Alpha  occ. eigenvalues --   -5.98339  -4.13276  -4.07858  -4.07858  -1.36131
 Alpha  occ. eigenvalues --   -0.95292  -0.95292  -0.86295  -0.86295  -0.82828
 Alpha  occ. eigenvalues --   -0.46238  -0.46238  -0.37905
 Alpha virt. eigenvalues --   -0.00811   0.02914   0.02914   0.03639   0.04173
 Alpha virt. eigenvalues --    0.09474   0.09474   0.12367   0.17356   0.18011
 Alpha virt. eigenvalues --    0.18618   0.18618   0.18674   0.18674   0.23153

 Mulliken charges and spin densities:
               1          2
     1  Zn   1.006253   0.000000
     2  O   -1.006253   0.000000
 Sum of Mulliken charges =  -0.00000   0.00000

 Dipole moment (field-independent basis, Debye):
    X=              0.0000    Y=              0.0000    Z=              4.3760  Tot=              4.3760
 Quadrupole moment (field-independent basis, Debye-Ang):
   XX=            -18.2303   YY=            -18.2303   ZZ=            -19.2031
   XY=              0.0000   XZ=              0.0000   YZ=              0.0000

 P ROCCSD(T)=(MaxCyc=150, Full)/Gen SCF=(maxcycle=400) Pseudo=Read Inte
 2-0=-242.3080642\MP4SDQ=-242.2260472\CCSD=-242.1822137\CCSD(T)=-242.23
 Normal termination of Gaussian 16 at Tue Mar 27 14:04:59 2018.
