 Gaussian 16, Revision A.03,
 Gaussian 16:  ES64L-G16RevA.03 25-Dec-2016

 ----------------------------------------------------------------------
 #P ROCCSD(T)=(MaxCyc=150, FrzINGC)/Gen SCF=(maxcycle=400, vshift=200)
 Integral(DKHSO, NoXCTest) Pop=Regular MaxDisk=500GB Guess=Read IOp(5/1
 5=2)
 ----------------------------------------------------------------------

 ---
 CoH
 ---
 Symbolic Z-matrix:
 Charge =  0 Multiplicity = 3

                         Standard orientation:
 ---------------------------------------------------------------------
 Center     Atomic      Atomic             Coordinates (Angstroms)
 Number     Number       Type             X           Y           Z
 ---------------------------------------------------------------------
      1         27           0        0.000000    0.000000    0.046429
      2          1           0        0.000000    0.000000   -1.253571
 ---------------------------------------------------------------------

 SCF Done:  E(ROHF) =  -1392.32826175     A.U. after   90 cycles
 E2 =    -0.8740724739D+00 EUMP2 =    -0.13932023342248D+04
 CCSD(T)
 CCSD(T)= -0.13931656405D+04

 Unable to determine electronic state:  partially filled degenerate orbitals.
 Alpha  occ. eigenvalues -- -285.58928 -35.28333 -30.05329 -30.05329 -30.05015
 Alpha  occ. eigenvalues --   -4.49756  -2.93424  -2.93148  -2.93148  -0.50463
 Alpha  occ. eigenvalues --   -0.48783  -0.44560  -0.44560  -0.44227  -0.31791
 Alpha virt. eigenvalues --    0.00551   0.02712   0.02712   0.03171   0.05553
 Alpha virt. eigenvalues --    0.09398   0.09398   0.10247   0.11407   0.11449
 Alpha virt. eigenvalues --    0.11472   0.11556   0.11556   0.18892   0.26104

 Mulliken charges and spin densities:
               1          2
     1  Co   0.335447   1.967882
     2  H   -0.335447   0.032118
 Sum of Mulliken charges =  -0.00000   2.00000

 Dipole moment (field-independent basis, Debye):
    X=              0.0000    Y=              0.0000    Z=              3.8452  Tot=              3.8452
 Quadrupole moment (field-independent basis, Debye-Ang):
   XX=            -14.1939   YY=            -14.1939   ZZ=            -16.8466
   XY=              0.0000   XZ=              0.0000   YZ=              0.0000

 \#P ROCCSD(T)=(MaxCyc=150, FrzINGC)/Gen SCF=(maxcycle=400, vshift=200)
 Normal termination of Gaussian 16 at Sat Apr 21 22:12:02 2018.
