 Gaussian 16, Revision A.03,
 Gaussian 16:  ES64L-G16RevA.03 25-Dec-2016

 ----------------------------------------------------------------------
 #P ROCCSD(T)=(maxcyc=150, Full, SaveAmplitudes, ReadAmplitudes)/Gen 5d
  7f SCF=(maxcycles=300, VShift=400) Integral(NoXCTest) MaxDisk=500GB P
 op=Full Pseudo=Read Guess=Read IOp(5/15=2)
 ----------------------------------------------------------------------

 ---
 MnO
 ---
 Symbolic Z-matrix:
 Charge =  0 Multiplicity = 6

                         Standard orientation:
 ---------------------------------------------------------------------
 Center     Atomic      Atomic             Coordinates (Angstroms)
 Number     Number       Type             X           Y           Z
 ---------------------------------------------------------------------
      1         25           0        0.000000    0.000000    0.363636
      2          8           0        0.000000    0.000000   -1.136364
 ---------------------------------------------------------------------

 SCF Done:  E(ROHF) =  -119.316256637     A.U. after   66 cycles
 E2 =    -0.9298726145D+00 EUMP2 =    -0.12024612925131D+03
 CCSD(T)
 CCSD(T)= -0.12026029997D+03

 The electronic state is 6-SG.
 Alpha  occ. eigenvalues --   -4.16355  -2.75194  -2.75194  -2.73123  -1.19239
 Alpha  occ. eigenvalues --   -0.68086  -0.68086  -0.64012  -0.64012  -0.53691
 Alpha  occ. eigenvalues --   -0.38565  -0.38565  -0.33508
 Alpha virt. eigenvalues --   -0.00683   0.01982   0.01982   0.03277   0.03845
 Alpha virt. eigenvalues --    0.06949   0.06949   0.08656   0.08656   0.08727
 Alpha virt. eigenvalues --    0.09514   0.09514   0.13272   0.14643   0.23389

 Mulliken charges and spin densities:
               1          2
     1  Mn   1.039639   4.820225
     2  O   -1.039639   0.179775
 Sum of Mulliken charges =  -0.00000   5.00000

 Dipole moment (field-independent basis, Debye):
    X=              0.0000    Y=              0.0000    Z=              6.3733  Tot=              6.3733
 Quadrupole moment (field-independent basis, Debye-Ang):
   XX=            -19.1430   YY=            -19.1430   ZZ=            -22.6510
   XY=              0.0000   XZ=              0.0000   YZ=              0.0000

 \\#P ROCCSD(T)=(maxcyc=150, Full, SaveAmplitudes, ReadAmplitudes)/Gen
 4SDQ=-120.2353549\CCSD=-120.2179034\CCSD(T)=-120.2603\RMSD=6.715e-09\P
 Normal termination of Gaussian 16 at Sun Mar 18 19:02:45 2018.
