 Gaussian 16, Revision A.03,
 Gaussian 16:  ES64L-G16RevA.03 25-Dec-2016

 ----------------------------------------------------------------------
 #P ROCCSD(T)=(maxcyc=150, Full, SaveAmplitudes, ReadAmplitudes)/Gen 5d
  7f SCF=(maxcycles=300) Integral(NoXCTest) MaxDisk=500GB Pop=Regular P
 seudo=Read Guess=Read IOp(5/15=2)
 ----------------------------------------------------------------------

 ---
 ScO
 ---
 Symbolic Z-matrix:
 Charge =  0 Multiplicity = 2

                         Standard orientation:
 ---------------------------------------------------------------------
 Center     Atomic      Atomic             Coordinates (Angstroms)
 Number     Number       Type             X           Y           Z
 ---------------------------------------------------------------------
      1         21           0        0.000000    0.000000    0.551724
      2          8           0        0.000000    0.000000   -1.448276
 ---------------------------------------------------------------------

 SCF Done:  E(ROHF) =  -61.7633408336     A.U. after   20 cycles
 E2 =    -0.6960628701D+00 EUMP2 =    -0.62459403703685D+02
 CCSD(T)
 CCSD(T)= -0.62492488538D+02

 The electronic state is 2-SG.
 Alpha  occ. eigenvalues --   -2.73803  -1.70936  -1.70936  -1.70414  -1.08963
 Alpha  occ. eigenvalues --   -0.38979  -0.34800  -0.34800  -0.28295
 Alpha virt. eigenvalues --   -0.01334  -0.01334   0.00546   0.01744   0.02822
 Alpha virt. eigenvalues --    0.02822   0.03099   0.03099   0.03702   0.04380
 Alpha virt. eigenvalues --    0.04380   0.04990   0.05097   0.05097   0.09692

 Mulliken charges and spin densities:
               1          2
     1  Sc   1.177379   0.977092
     2  O   -1.177379   0.022908
 Sum of Mulliken charges =  -0.00000   1.00000

 Dipole moment (field-independent basis, Debye):
    X=              0.0000    Y=              0.0000    Z=              7.4551  Tot=              7.4551
 Quadrupole moment (field-independent basis, Debye-Ang):
   XX=            -22.1729   YY=            -22.1729   ZZ=            -34.9686
   XY=              0.0000   XZ=              0.0000   YZ=              0.0000

 \\#P ROCCSD(T)=(maxcyc=150, Full, SaveAmplitudes, ReadAmplitudes)/Gen
 3\CCSD=-62.4413168\CCSD(T)=-62.4924885\RMSD=1.979e-09\PG=C*V [C*(O1Sc1
 Normal termination of Gaussian 16 at Wed Feb 21 08:10:37 2018.
