 Gaussian 16, Revision A.03,
 Gaussian 16:  ES64L-G16RevA.03 25-Dec-2016

 ----------------------------------------------------------------------
 #P ROCCSD(T)=(maxcyc=150, Full, SaveAmplitudes, ReadAmplitudes)/Gen 5d
  7f SCF=(maxcycles=300) Integral(NoXCTest) MaxDisk=500GB Pop=Regular P
 seudo=Read Guess=Read
 ----------------------------------------------------------------------

 ---
 TiO
 ---
 Symbolic Z-matrix:
 Charge =  0 Multiplicity = 3

                         Standard orientation:
 ---------------------------------------------------------------------
 Center     Atomic      Atomic             Coordinates (Angstroms)
 Number     Number       Type             X           Y           Z
 ---------------------------------------------------------------------
      1         22           0        0.000000    0.000000    0.346667
      2          8           0        0.000000    0.000000   -0.953333
 ---------------------------------------------------------------------

 SCF Done:  E(ROHF) =  -73.2861794988     A.U. after   22 cycles
 E2 =    -0.7661679355D+00 EUMP2 =    -0.74052347434321D+02
 CCSD(T)
 CCSD(T)= -0.74074861106D+02

 Unable to determine electronic state:  an orbital has unidentified symmetry.
 Alpha  occ. eigenvalues --   -2.94919  -1.95970  -1.82448  -1.82448  -1.14609
 Alpha  occ. eigenvalues --   -0.59194  -0.59194  -0.52507  -0.35827  -0.21634
 Alpha virt. eigenvalues --    0.01136   0.01136   0.02113   0.02339   0.03785
 Alpha virt. eigenvalues --    0.03785   0.03805   0.03843   0.03859   0.04635
 Alpha virt. eigenvalues --    0.04635   0.07227   0.10372   0.10655   0.11228

 Mulliken charges and spin densities:
               1          2
     1  Ti   0.853150   1.982805
     2  O   -0.853150   0.017195
 Sum of Mulliken charges =  -0.00000   2.00000

 Dipole moment (field-independent basis, Debye):
    X=              0.0000    Y=              0.0000    Z=              0.6247  Tot=              0.6247
 Quadrupole moment (field-independent basis, Debye-Ang):
   XX=            -22.0125   YY=            -22.0125   ZZ=            -27.0764
   XY=              0.0000   XZ=              0.0000   YZ=              0.0000

 \\#P ROCCSD(T)=(maxcyc=150, Full, SaveAmplitudes, ReadAmplitudes)/Gen
 -0=-74.0523474\CCSD=-74.0386413\CCSD(T)=-74.0748611\RMSD=2.788e-09\PG=
 Normal termination of Gaussian 16 at Sat Mar 10 02:08:42 2018.
