 Gaussian 16, Revision A.03,
 Gaussian 16:  ES64L-G16RevA.03 25-Dec-2016

 ----------------------------------------------------------------------
 #P ROCCSD(T)=(maxcyc=100, Full)/Gen SCF=(maxcycle=400, symm) Pseudo=Re
 ad Integral(NoXCTest) Pop=Regular MaxDisk=500GB Guess=Permute IOp(5/15
 =2)
 ----------------------------------------------------------------------

 ---
 FeH
 ---
 Symbolic Z-matrix:
 Charge =  0 Multiplicity = 4

                         Standard orientation:
 ---------------------------------------------------------------------
 Center     Atomic      Atomic             Coordinates (Angstroms)
 Number     Number       Type             X           Y           Z
 ---------------------------------------------------------------------
      1         26           0        0.000000    0.000000    0.062963
      2          1           0        0.000000    0.000000   -1.637037
 ---------------------------------------------------------------------

 SCF Done:  E(ROHF) =  -123.507512718     A.U. after   41 cycles
 E2 =    -0.8027515815D+00 EUMP2 =    -0.12431026429902D+03
 CCSD(T)
 CCSD(T)= -0.12431165068D+03

 Unable to determine electronic state:  an orbital has unidentified symmetry.
 Alpha  occ. eigenvalues --   -4.37317  -2.79699  -2.79291  -2.79291  -0.49249
 Alpha  occ. eigenvalues --   -0.49249  -0.48773  -0.43798  -0.43589  -0.31924
 Alpha virt. eigenvalues --   -0.00684   0.02101   0.02101   0.02678   0.03235
 Alpha virt. eigenvalues --    0.05759   0.06180   0.06191   0.06358   0.06358
 Alpha virt. eigenvalues --    0.07380   0.07380   0.08758   0.12853   0.16276

 Mulliken charges and spin densities:
               1          2
     1  Fe   0.295713   2.996274
     2  H   -0.295713   0.003726
 Sum of Mulliken charges =  -0.00000   3.00000

 Dipole moment (field-independent basis, Debye):
    X=              0.0000    Y=              0.0000    Z=              4.7063  Tot=              4.7063
 Quadrupole moment (field-independent basis, Debye-Ang):
   XX=            -15.4520   YY=            -15.4520   ZZ=            -18.2510
   XY=              0.0000   XZ=              0.0000   YZ=              0.0000

 \\#P ROCCSD(T)=(maxcyc=100, Full)/Gen SCF=(maxcycle=400, symm) Pseudo=
 826982\CCSD(T)=-124.3116507\RMSD=7.578e-09\PG=C*V [C*(H1Fe1)]\\@
 Normal termination of Gaussian 16 at Mon Feb 12 22:49:02 2018.
