 Gaussian 16, Revision A.03,
 Gaussian 16:  ES64L-G16RevA.03 25-Dec-2016

 ----------------------------------------------------------------------
 #P ROCCSD(T)=(maxcyc=100, Full)/Gen SCF=(maxcycle=400, symm) Pseudo=Re
 ad Integral(NoXCTest) Pop=Regular MaxDisk=500GB Guess=Permute IOp(5/15
 =2)
 ----------------------------------------------------------------------

 ---
 FeH
 ---
 Symbolic Z-matrix:
 Charge =  0 Multiplicity = 4

                         Standard orientation:
 ---------------------------------------------------------------------
 Center     Atomic      Atomic             Coordinates (Angstroms)
 Number     Number       Type             X           Y           Z
 ---------------------------------------------------------------------
      1         26           0        0.000000    0.000000    0.062963
      2          1           0        0.000000    0.000000   -1.637037
 ---------------------------------------------------------------------

 SCF Done:  E(ROHF) =  -123.506192788     A.U. after   34 cycles
 E2 =    -0.7532093763D+00 EUMP2 =    -0.12425940216416D+03
 CCSD(T)
 CCSD(T)= -0.12426488628D+03

 Unable to determine electronic state:  an orbital has unidentified symmetry.
 Alpha  occ. eigenvalues --   -4.37365  -2.79714  -2.79304  -2.79304  -0.49246
 Alpha  occ. eigenvalues --   -0.49246  -0.48768  -0.43788  -0.43573  -0.31921
 Alpha virt. eigenvalues --   -0.00649   0.02407   0.02407   0.03298   0.04019
 Alpha virt. eigenvalues --    0.08444   0.08444   0.09527   0.10164   0.10205
 Alpha virt. eigenvalues --    0.10397   0.10397   0.10894   0.17131   0.23253

 Mulliken charges and spin densities:
               1          2
     1  Fe   0.426701   2.997977
     2  H   -0.426701   0.002023
 Sum of Mulliken charges =  -0.00000   3.00000

 Dipole moment (field-independent basis, Debye):
    X=              0.0000    Y=              0.0000    Z=              4.7108  Tot=              4.7108
 Quadrupole moment (field-independent basis, Debye-Ang):
   XX=            -15.4693   YY=            -15.4693   ZZ=            -18.2359
   XY=              0.0000   XZ=              0.0000   YZ=              0.0000

 \\#P ROCCSD(T)=(maxcyc=100, Full)/Gen SCF=(maxcycle=400, symm) Pseudo=
 385202\CCSD(T)=-124.2648863\RMSD=6.716e-09\PG=C*V [C*(H1Fe1)]\\@
 Normal termination of Gaussian 16 at Mon Feb 12 20:23:43 2018.
