 Gaussian 16, Revision A.03,
 Gaussian 16:  ES64L-G16RevA.03 25-Dec-2016

 ----------------------------------------------------------------------
 #P ROCCSD(T)=(maxcyc=100, Full)/Gen SCF=(maxcycle=400, symm) Pseudo=Re
 ad Integral(NoXCTest) Pop=Regular MaxDisk=500GB Guess=Permute IOp(5/15
 =2)
 ----------------------------------------------------------------------

 ---
 FeH
 ---
 Symbolic Z-matrix:
 Charge =  0 Multiplicity = 4

                         Standard orientation:
 ---------------------------------------------------------------------
 Center     Atomic      Atomic             Coordinates (Angstroms)
 Number     Number       Type             X           Y           Z
 ---------------------------------------------------------------------
      1         26           0        0.000000    0.000000    0.062963
      2          1           0        0.000000    0.000000   -1.637037
 ---------------------------------------------------------------------

 SCF Done:  E(ROHF) =  -123.502028763     A.U. after   28 cycles
 E2 =    -0.7886463367D+00 EUMP2 =    -0.12429067509984D+03
 CCSD(T)
 CCSD(T)= -0.12429409389D+03

 Unable to determine electronic state:  an orbital has unidentified symmetry.
 Alpha  occ. eigenvalues --   -4.37202  -2.79741  -2.79333  -2.79333  -0.49248
 Alpha  occ. eigenvalues --   -0.49248  -0.48772  -0.43793  -0.43584  -0.31921
 Alpha virt. eigenvalues --   -0.00662   0.02168   0.02168   0.03015   0.03744
 Alpha virt. eigenvalues --    0.06223   0.06746   0.06760   0.06870   0.06870
 Alpha virt. eigenvalues --    0.07739   0.07739   0.10028   0.16045   0.17846

 Mulliken charges and spin densities:
               1          2
     1  Fe   0.350415   2.999413
     2  H   -0.350415   0.000587
 Sum of Mulliken charges =  -0.00000   3.00000

 Dipole moment (field-independent basis, Debye):
    X=              0.0000    Y=              0.0000    Z=              4.7079  Tot=              4.7079
 Quadrupole moment (field-independent basis, Debye-Ang):
   XX=            -15.4551   YY=            -15.4551   ZZ=            -18.2513
   XY=              0.0000   XZ=              0.0000   YZ=              0.0000

 \\#P ROCCSD(T)=(maxcyc=100, Full)/Gen SCF=(maxcycle=400, symm) Pseudo=
 2658066\CCSD(T)=-124.2940939\RMSD=3.456e-09\PG=C*V [C*(H1Fe1)]\\@
 Normal termination of Gaussian 16 at Mon Feb 12 21:02:05 2018.
