 Gaussian 16, Revision A.03,
 Gaussian 16:  ES64L-G16RevA.03 25-Dec-2016

 ----------------------------------------------------------------------
 #P ROCCSD(T)=(maxcyc=150, Full, SaveAmplitudes, ReadAmplitudes)/Gen 5d
  7f SCF=(maxcycles=300) Integral(NoXCTest) MaxDisk=500GB Pop=Regular P
 seudo=Read Guess=Read IOp(5/15=2)
 ----------------------------------------------------------------------

 ---
 CrH
 ---
 Symbolic Z-matrix:
 Charge =  0 Multiplicity = 6

                         Standard orientation:
 ---------------------------------------------------------------------
 Center     Atomic      Atomic             Coordinates (Angstroms)
 Number     Number       Type             X           Y           Z
 ---------------------------------------------------------------------
      1         24           0        0.000000    0.000000    0.068000
      2          1           0        0.000000    0.000000   -1.632000
 ---------------------------------------------------------------------

 SCF Done:  E(ROHF) =  -86.8814148370     A.U. after   28 cycles
 E2 =    -0.5368605553D+00 EUMP2 =    -0.87418275392286D+02
 CCSD(T)
 CCSD(T)= -0.87413440197D+02

 The electronic state is 6-SG.
 Alpha  occ. eigenvalues --   -3.74767  -2.44699  -2.44699  -2.40045  -0.54922
 Alpha  occ. eigenvalues --   -0.54922  -0.51656  -0.51656  -0.40700  -0.26093
 Alpha virt. eigenvalues --    0.01332   0.01332   0.02272   0.02541   0.05578
 Alpha virt. eigenvalues --    0.05578   0.05836   0.07619   0.07619   0.08054
 Alpha virt. eigenvalues --    0.08054   0.08861   0.10352   0.17815   0.21065

 Mulliken charges and spin densities:
               1          2
     1  Cr   0.461587   4.981169
     2  H   -0.461587   0.018831
 Sum of Mulliken charges =  -0.00000   5.00000

 Dipole moment (field-independent basis, Debye):
    X=              0.0000    Y=              0.0000    Z=              2.2025  Tot=              2.2025
 Quadrupole moment (field-independent basis, Debye-Ang):
   XX=            -16.9315   YY=            -16.9315   ZZ=            -24.0764
   XY=              0.0000   XZ=              0.0000   YZ=              0.0000

 \\#P ROCCSD(T)=(maxcyc=150, Full, SaveAmplitudes, ReadAmplitudes)/Gen
 63\CCSD=-87.4029381\CCSD(T)=-87.4134402\RMSD=5.531e-09\PG=C*V [C*(H1Cr
 Normal termination of Gaussian 16 at Mon Feb 26 10:33:44 2018.
