 Gaussian 16, Revision A.03,
 Gaussian 16:  ES64L-G16RevA.03 25-Dec-2016

 ----------------------------------------------------------------------
 #P ROCCSD(T)=(maxcyc=150, Full, SaveAmplitudes, ReadAmplitudes)/Gen 5d
  7f SCF=(maxcycles=300) Integral(NoXCTest) MaxDisk=500GB Pop=Regular P
 seudo=Read Guess=Read
 ----------------------------------------------------------------------

 ---
 ScO
 ---
 Symbolic Z-matrix:
 Charge =  0 Multiplicity = 2

                         Standard orientation:
 ---------------------------------------------------------------------
 Center     Atomic      Atomic             Coordinates (Angstroms)
 Number     Number       Type             X           Y           Z
 ---------------------------------------------------------------------
      1         21           0        0.000000    0.000000    0.551724
      2          8           0        0.000000    0.000000   -1.448276
 ---------------------------------------------------------------------

 SCF Done:  E(ROHF) =  -61.9993570345     A.U. after   17 cycles
 E2 =    -0.7239388980D+00 EUMP2 =    -0.62723295932419D+02
 CCSD(T)
 CCSD(T)= -0.62754277786D+02

 The electronic state is 2-SG.
 Alpha  occ. eigenvalues --   -2.77219  -1.70901  -1.70901  -1.70381  -1.09729
 Alpha  occ. eigenvalues --   -0.38906  -0.34671  -0.34671  -0.28489
 Alpha virt. eigenvalues --   -0.01320  -0.01320   0.00460   0.01631   0.02375
 Alpha virt. eigenvalues --    0.02375   0.02525   0.02525   0.03039   0.03307
 Alpha virt. eigenvalues --    0.03307   0.04054   0.04449   0.04449   0.08600

 Mulliken charges and spin densities:
               1          2
     1  Sc   1.194529   0.980106
     2  O   -1.194529   0.019894
 Sum of Mulliken charges =  -0.00000   1.00000

 Dipole moment (field-independent basis, Debye):
    X=              0.0000    Y=              0.0000    Z=              7.5251  Tot=              7.5251
 Quadrupole moment (field-independent basis, Debye-Ang):
   XX=            -22.0497   YY=            -22.0497   ZZ=            -34.6559
   XY=              0.0000   XZ=              0.0000   YZ=              0.0000

 \\#P ROCCSD(T)=(maxcyc=150, Full, SaveAmplitudes, ReadAmplitudes)/Gen
 357\PMP2-0=-62.7232959\CCSD=-62.700976\CCSD(T)=-62.7542778\RMSD=5.073e
 Normal termination of Gaussian 16 at Wed Feb 21 09:28:36 2018.
