 Gaussian 16, Revision A.03,
 Gaussian 16:  ES64L-G16RevA.03 25-Dec-2016

 ----------------------------------------------------------------------
 #P ROCCSD(T)=(maxcyc=150, Full, SaveAmplitudes, ReadAmplitudes)/Gen 5d
  7f SCF=(maxcycles=300) Integral(NoXCTest) MaxDisk=500GB Pop=Regular P
 seudo=Read Guess=Read IOp(5/15=2)
 ----------------------------------------------------------------------

 ---
 MnO
 ---
 Symbolic Z-matrix:
 Charge =  0 Multiplicity = 6

                         Standard orientation:
 ---------------------------------------------------------------------
 Center     Atomic      Atomic             Coordinates (Angstroms)
 Number     Number       Type             X           Y           Z
 ---------------------------------------------------------------------
      1         25           0        0.000000    0.000000    0.339394
      2          8           0        0.000000    0.000000   -1.060606
 ---------------------------------------------------------------------

 SCF Done:  E(ROHF) =  -119.106074298     A.U. after   33 cycles
 E2 =    -0.9258854546D+00 EUMP2 =    -0.12003195975286D+03
 CCSD(T)
 CCSD(T)= -0.12004309008D+03

 The electronic state is 6-SG.
 Alpha  occ. eigenvalues --   -4.23082  -2.78438  -2.78438  -2.76276  -1.24453
 Alpha  occ. eigenvalues --   -0.70636  -0.70636  -0.63325  -0.63325  -0.55838
 Alpha  occ. eigenvalues --   -0.41116  -0.41116  -0.31681
 Alpha virt. eigenvalues --    0.01211   0.02180   0.02180   0.03331   0.05165
 Alpha virt. eigenvalues --    0.07091   0.07091   0.08700   0.08700   0.09362
 Alpha virt. eigenvalues --    0.09362   0.09508   0.12559   0.15486   0.23670

 Mulliken charges and spin densities:
               1          2
     1  Mn   0.927845   4.799792
     2  O   -0.927845   0.200208
 Sum of Mulliken charges =  -0.00000   5.00000

 Dipole moment (field-independent basis, Debye):
    X=              0.0000    Y=              0.0000    Z=              4.1991  Tot=              4.1991
 Quadrupole moment (field-independent basis, Debye-Ang):
   XX=            -19.6876   YY=            -19.6876   ZZ=            -23.2296
   XY=              0.0000   XZ=              0.0000   YZ=              0.0000

 \\#P ROCCSD(T)=(maxcyc=150, Full, SaveAmplitudes, ReadAmplitudes)/Gen
 .0189082\CCSD=-120.0018274\CCSD(T)=-120.0430901\RMSD=7.088e-09\PG=C*V
 Normal termination of Gaussian 16 at Tue Mar 13 14:23:55 2018.
