 Gaussian 16, Revision A.03,
 Gaussian 16:  ES64L-G16RevA.03 25-Dec-2016

 ----------------------------------------------------------------------
 #P ROCCSD(T)=(maxcyc=150, Full, SaveAmplitudes, ReadAmplitudes)/Gen 5d
  7f SCF=(maxcycles=300) Integral(NoXCTest) MaxDisk=500GB Pop=Regular P
 seudo=Read Guess=Read IOp(5/15=2)
 ----------------------------------------------------------------------

 ---
 MnH
 ---
 Symbolic Z-matrix:
 Charge =  0 Multiplicity = 7

                         Standard orientation:
 ---------------------------------------------------------------------
 Center     Atomic      Atomic             Coordinates (Angstroms)
 Number     Number       Type             X           Y           Z
 ---------------------------------------------------------------------
      1         25           0        0.000000    0.000000    0.042308
      2          1           0        0.000000    0.000000   -1.057692
 ---------------------------------------------------------------------

 SCF Done:  E(ROHF) =  -104.053427882     A.U. after   29 cycles
 E2 =    -0.6092971671D+00 EUMP2 =    -0.10466272504897D+03
 CCSD(T)
 CCSD(T)= -0.10468022017D+03

 The electronic state is 7-SG.
 Alpha  occ. eigenvalues --   -4.17356  -2.77334  -2.75642  -2.75642  -0.70457
 Alpha  occ. eigenvalues --   -0.64858  -0.64858  -0.64231  -0.64231  -0.40612
 Alpha  occ. eigenvalues --   -0.22586
 Alpha virt. eigenvalues --    0.01349   0.01349   0.02008   0.03399   0.05826
 Alpha virt. eigenvalues --    0.05826   0.08495   0.08495   0.08627   0.08807
 Alpha virt. eigenvalues --    0.08864   0.08864   0.14222   0.22442   0.22627

 Mulliken charges and spin densities:
               1          2
     1  Mn   0.540611   5.921393
     2  H   -0.540611   0.078607
 Sum of Mulliken charges =  -0.00000   6.00000

 Dipole moment (field-independent basis, Debye):
    X=              0.0000    Y=              0.0000    Z=             -0.7555  Tot=              0.7555
 Quadrupole moment (field-independent basis, Debye-Ang):
   XX=            -15.9648   YY=            -15.9648   ZZ=            -25.4714
   XY=              0.0000   XZ=              0.0000   YZ=              0.0000

 \\#P ROCCSD(T)=(maxcyc=150, Full, SaveAmplitudes, ReadAmplitudes)/Gen
 616523\CCSD=-104.6625089\CCSD(T)=-104.6802202\RMSD=3.499e-09\PG=C*V [C
 Normal termination of Gaussian 16 at Sun Feb 25 20:01:23 2018.
