 Gaussian 16, Revision A.03,
 Gaussian 16:  ES64L-G16RevA.03 25-Dec-2016

 ----------------------------------------------------------------------
 #P ROCCSD(T)=(maxcyc=150, Full, SaveAmplitudes, ReadAmplitudes)/Gen 5d
  7f SCF=(maxcycles=300) Integral(NoXCTest) MaxDisk=500GB Pop=Regular P
 seudo=Read Guess=Read IOp(5/15=2)
 ----------------------------------------------------------------------

 ---
 TiO
 ---
 Symbolic Z-matrix:
 Charge =  0 Multiplicity = 3

                         Standard orientation:
 ---------------------------------------------------------------------
 Center     Atomic      Atomic             Coordinates (Angstroms)
 Number     Number       Type             X           Y           Z
 ---------------------------------------------------------------------
      1         22           0        0.000000    0.000000    0.506667
      2          8           0        0.000000    0.000000   -1.393333
 ---------------------------------------------------------------------

 SCF Done:  E(ROHF) =  -73.4889714399     A.U. after   23 cycles
 E2 =    -0.7637686166D+00 EUMP2 =    -0.74252740056471D+02
 CCSD(T)
 CCSD(T)= -0.74289414294D+02

 Unable to determine electronic state:  an orbital has unidentified symmetry.
 Alpha  occ. eigenvalues --   -3.10924  -1.97391  -1.97391  -1.92820  -1.11191
 Alpha  occ. eigenvalues --   -0.52757  -0.41216  -0.37230  -0.37230  -0.29977
 Alpha virt. eigenvalues --   -0.00894  -0.00894  -0.00017   0.01983   0.03343
 Alpha virt. eigenvalues --    0.03343   0.03709   0.04489   0.05032   0.05958
 Alpha virt. eigenvalues --    0.05958   0.06103   0.07599   0.10574   0.10588

 Mulliken charges and spin densities:
               1          2
     1  Ti   0.967785   1.985051
     2  O   -0.967785   0.014949
 Sum of Mulliken charges =  -0.00000   2.00000

 Dipole moment (field-independent basis, Debye):
    X=              0.0000    Y=              0.0000    Z=              7.1417  Tot=              7.1417
 Quadrupole moment (field-independent basis, Debye-Ang):
   XX=            -21.6464   YY=            -21.6464   ZZ=            -30.3479
   XY=              0.0000   XZ=              0.0000   YZ=              0.0000

 \\#P ROCCSD(T)=(maxcyc=150, Full, SaveAmplitudes, ReadAmplitudes)/Gen
 .2316332\CCSD(T)=-74.2894143\RMSD=6.307e-09\PG=C*V [C*(O1Ti1)]\\@
 Normal termination of Gaussian 16 at Tue Mar 13 01:11:04 2018.
