 Gaussian 16, Revision A.03,
 Gaussian 16:  ES64L-G16RevA.03 25-Dec-2016

 ----------------------------------------------------------------------
 #P ROCCSD(T)=(maxcyc=150, Full, SaveAmplitudes, ReadAmplitudes)/Gen 5d
  7f SCF=(maxcycles=300) Integral(NoXCTest) MaxDisk=500GB Pop=Regular P
 seudo=Read Guess=Read
 ----------------------------------------------------------------------

 ---
 MnO
 ---
 Symbolic Z-matrix:
 Charge =  0 Multiplicity = 6

                         Standard orientation:
 ---------------------------------------------------------------------
 Center     Atomic      Atomic             Coordinates (Angstroms)
 Number     Number       Type             X           Y           Z
 ---------------------------------------------------------------------
      1         25           0        0.000000    0.000000    0.412121
      2          8           0        0.000000    0.000000   -1.287879
 ---------------------------------------------------------------------

 SCF Done:  E(ROHF) =  -119.376207094     A.U. after   24 cycles
 E2 =    -0.9550384748D+00 EUMP2 =    -0.12033124556929D+03
 CCSD(T)
 CCSD(T)= -0.12035978769D+03

 The electronic state is 6-SG.
 Alpha  occ. eigenvalues --   -4.08905  -2.75210  -2.75210  -2.74714  -1.10090
 Alpha  occ. eigenvalues --   -0.64181  -0.64181  -0.63458  -0.63458  -0.59573
 Alpha  occ. eigenvalues --   -0.33965  -0.33710  -0.33710
 Alpha virt. eigenvalues --   -0.04810   0.01320   0.01320   0.01542   0.03378
 Alpha virt. eigenvalues --    0.05758   0.05758   0.05845   0.05845   0.06364
 Alpha virt. eigenvalues --    0.07063   0.07063   0.11311   0.12633   0.17820

 Mulliken charges and spin densities:
               1          2
     1  Mn   1.181643   4.909698
     2  O   -1.181643   0.090302
 Sum of Mulliken charges =  -0.00000   5.00000

 Dipole moment (field-independent basis, Debye):
    X=              0.0000    Y=              0.0000    Z=              9.1914  Tot=              9.1914
 Quadrupole moment (field-independent basis, Debye-Ang):
   XX=            -18.7663   YY=            -18.7663   ZZ=            -23.6791
   XY=              0.0000   XZ=              0.0000   YZ=              0.0000

 \\#P ROCCSD(T)=(maxcyc=150, Full, SaveAmplitudes, ReadAmplitudes)/Gen
 9.3762071\PMP2-0=-120.3312456\CCSD=-120.3158798\CCSD(T)=-120.3597877\R
 Normal termination of Gaussian 16 at Wed Mar 14 04:39:29 2018.
