 Gaussian 16, Revision A.03,
 Gaussian 16:  ES64L-G16RevA.03 25-Dec-2016

 ----------------------------------------------------------------------
 #P ROCCSD(T)=(maxcyc=150, Full, ReadAmplitudes)/Gen 5d 7f SCF=(maxcycl
 es=300) Integral(NoXCTest) MaxDisk=500GB Pop=Regular Pseudo=Read Guess
 =Read
 ----------------------------------------------------------------------

 ---
 MnH
 ---
 Symbolic Z-matrix:
 Charge =  0 Multiplicity = 7

                         Standard orientation:
 ---------------------------------------------------------------------
 Center     Atomic      Atomic             Coordinates (Angstroms)
 Number     Number       Type             X           Y           Z
 ---------------------------------------------------------------------
      1         25           0        0.000000    0.000000    0.061538
      2          1           0        0.000000    0.000000   -1.538462
 ---------------------------------------------------------------------

 SCF Done:  E(ROHF) =  -104.247842300     A.U. after   23 cycles
 E2 =    -0.6291336893D+00 EUMP2 =    -0.10487697598887D+03
 CCSD(T)
 CCSD(T)= -0.10489705020D+03

 The electronic state is 7-SG.
 Alpha  occ. eigenvalues --   -4.09527  -2.75661  -2.75661  -2.75660  -0.63960
 Alpha  occ. eigenvalues --   -0.63729  -0.63729  -0.63071  -0.63071  -0.41388
 Alpha  occ. eigenvalues --   -0.25926
 Alpha virt. eigenvalues --    0.01192   0.01192   0.01827   0.02692   0.04841
 Alpha virt. eigenvalues --    0.04841   0.05305   0.05352   0.05352   0.05688
 Alpha virt. eigenvalues --    0.05688   0.07715   0.10917   0.13770   0.16244

 Mulliken charges and spin densities:
               1          2
     1  Mn   0.376656   5.938739
     2  H   -0.376656   0.061261
 Sum of Mulliken charges =  -0.00000   6.00000

 Dipole moment (field-independent basis, Debye):
    X=              0.0000    Y=              0.0000    Z=              0.9430  Tot=              0.9430
 Quadrupole moment (field-independent basis, Debye-Ang):
   XX=            -15.9787   YY=            -15.9787   ZZ=            -25.7944
   XY=              0.0000   XZ=              0.0000   YZ=              0.0000

 \\#P ROCCSD(T)=(maxcyc=150, Full, ReadAmplitudes)/Gen 5d 7f SCF=(maxcy
 Normal termination of Gaussian 16 at Tue Apr  3 20:37:13 2018.
