 Gaussian 16, Revision A.03,
 Gaussian 16:  ES64L-G16RevA.03 25-Dec-2016

 ----------------------------------------------------------------------
 #P ROCCSD(T)=(MaxCyc=150, Full)/Gen SCF=(maxcycle=400) Pseudo=Read Int
 egral(NoXCTest) Pop=Regular MaxDisk=500GB Guess=Read IOp(5/15=2)
 ----------------------------------------------------------------------

 ---
 CoO
 ---
 Symbolic Z-matrix:
 Charge =  0 Multiplicity = 4

                         Standard orientation:
 ---------------------------------------------------------------------
 Center     Atomic      Atomic             Coordinates (Angstroms)
 Number     Number       Type             X           Y           Z
 ---------------------------------------------------------------------
      1         27           0        0.000000    0.000000    0.320000
      2          8           0        0.000000    0.000000   -1.080000
 ---------------------------------------------------------------------

 SCF Done:  E(ROHF) =  -160.259131800     A.U. after   25 cycles
 E2 =    -0.1112840897D+01 EUMP2 =    -0.16137197269673D+03
 CCSD(T)
 CCSD(T)= -0.16137700665D+03

 Unable to determine electronic state:  partially filled degenerate orbitals.
 Alpha  occ. eigenvalues --   -4.84970  -3.30677  -3.28537  -3.28537  -1.26149
 Alpha  occ. eigenvalues --   -0.79908  -0.79908  -0.75293  -0.70256  -0.67770
 Alpha  occ. eigenvalues --   -0.43480  -0.43480  -0.35796
 Alpha virt. eigenvalues --   -0.02174   0.02620   0.02620   0.03241   0.03956
 Alpha virt. eigenvalues --    0.08656   0.08656   0.10283   0.11142   0.11169
 Alpha virt. eigenvalues --    0.11752   0.11752   0.14375   0.16496   0.26031

 Mulliken charges and spin densities:
               1          2
     1  Co   0.944088   2.786875
     2  O   -0.944088   0.213125
 Sum of Mulliken charges =  -0.00000   3.00000

 Dipole moment (field-independent basis, Debye):
    X=              0.0000    Y=              0.0000    Z=              5.6060  Tot=              5.6060
 Quadrupole moment (field-independent basis, Debye-Ang):
   XX=            -19.2210   YY=            -19.2210   ZZ=            -20.1539
   XY=              0.0000   XZ=              0.0000   YZ=              0.0000

 \\#P ROCCSD(T)=(MaxCyc=150, Full)/Gen SCF=(maxcycle=400) Pseudo=Read I
 .3719727\MP4SDQ=-161.3435894\CCSD=-161.3253341\CCSD(T)=-161.3770067\RM
 Normal termination of Gaussian 16 at Sat Mar 31 14:33:09 2018.
