 Gaussian 16, Revision A.03,
 Gaussian 16:  ES64L-G16RevA.03 25-Dec-2016

 ----------------------------------------------------------------------
 #P ROCCSD(T)=(MaxCyc=150, Full)/Gen SCF=(maxcycle=400) Pseudo=Read Int
 egral(NoXCTest) Pop=Regular MaxDisk=500GB Guess=Read IOp(5/15=2)
 ----------------------------------------------------------------------

 ---
 CoO
 ---
 Symbolic Z-matrix:
 Charge =  0 Multiplicity = 4

                         Standard orientation:
 ---------------------------------------------------------------------
 Center     Atomic      Atomic             Coordinates (Angstroms)
 Number     Number       Type             X           Y           Z
 ---------------------------------------------------------------------
      1         27           0        0.000000    0.000000    0.320000
      2          8           0        0.000000    0.000000   -1.080000
 ---------------------------------------------------------------------

 SCF Done:  E(ROHF) =  -160.262275259     A.U. after   19 cycles
 E2 =    -0.1165265256D+01 EUMP2 =    -0.16142754051507D+03
 CCSD(T)
 CCSD(T)= -0.16143004423D+03

 Unable to determine electronic state:  partially filled degenerate orbitals.
 Alpha  occ. eigenvalues --   -4.84967  -3.30659  -3.28526  -3.28526  -1.26105
 Alpha  occ. eigenvalues --   -0.79913  -0.79913  -0.75294  -0.70260  -0.67764
 Alpha  occ. eigenvalues --   -0.43492  -0.43492  -0.35780
 Alpha virt. eigenvalues --   -0.02172   0.02315   0.02315   0.02982   0.03601
 Alpha virt. eigenvalues --    0.07020   0.07020   0.07097   0.07288   0.07297
 Alpha virt. eigenvalues --    0.08951   0.08951   0.12589   0.15356   0.21683

 Mulliken charges and spin densities:
               1          2
     1  Co   0.888943   2.790073
     2  O   -0.888943   0.209927
 Sum of Mulliken charges =  -0.00000   3.00000

 Dipole moment (field-independent basis, Debye):
    X=              0.0000    Y=              0.0000    Z=              5.5937  Tot=              5.5937
 Quadrupole moment (field-independent basis, Debye-Ang):
   XX=            -19.2214   YY=            -19.2214   ZZ=            -20.1370
   XY=              0.0000   XZ=              0.0000   YZ=              0.0000

 \\#P ROCCSD(T)=(MaxCyc=150, Full)/Gen SCF=(maxcycle=400) Pseudo=Read I
 .4275405\MP4SDQ=-161.3935198\CCSD=-161.3760287\CCSD(T)=-161.4300442\RM
 Normal termination of Gaussian 16 at Sat Mar 31 16:50:13 2018.
