 Gaussian 16, Revision A.03,
 Gaussian 16:  ES64L-G16RevA.03 25-Dec-2016

 ----------------------------------------------------------------------
 #P ROCCSD(T)=(maxcyc=150, Window=(7,0), SaveAmplitudes, ReadAmplitudes
 )/Gen 5d 7f SCF=(maxcycles=300) Integral(NoXCTest, DKHSO) MaxDisk=500G
 B Pop=Regular Guess=Read
 ----------------------------------------------------------------------

 ---
 TiO
 ---
 Symbolic Z-matrix:
 Charge =  0 Multiplicity = 3

                         Standard orientation:
 ---------------------------------------------------------------------
 Center     Atomic      Atomic             Coordinates (Angstroms)
 Number     Number       Type             X           Y           Z
 ---------------------------------------------------------------------
      1         22           0        0.000000    0.000000    0.426667
      2          8           0        0.000000    0.000000   -1.173333
 ---------------------------------------------------------------------

 SCF Done:  E(ROHF) =  -927.716565616     A.U. after   20 cycles
 E2 =    -0.7504117581D+00 EUMP2 =    -0.92846697737429D+03
 CCSD(T)
 CCSD(T)= -0.92849062127D+03

 Unable to determine electronic state:  an orbital has unidentified symmetry.
 Alpha  occ. eigenvalues -- -184.44823 -21.71661 -20.50626 -17.88280 -17.88280
 Alpha  occ. eigenvalues --  -17.88165  -2.98500  -1.89404  -1.89404  -1.88828
 Alpha  occ. eigenvalues --   -1.15186  -0.46740  -0.45109  -0.45109  -0.44978
 Alpha  occ. eigenvalues --   -0.26312
 Alpha virt. eigenvalues --    0.00366   0.00366   0.01461   0.02343   0.03664
 Alpha virt. eigenvalues --    0.03664   0.03697   0.03769   0.04173   0.04173
 Alpha virt. eigenvalues --    0.04203   0.05336   0.09142   0.10352   0.11581

 Mulliken charges and spin densities:
               1          2
     1  Ti   1.012943   1.969865
     2  O   -1.012943   0.030135
 Sum of Mulliken charges =  -0.00000   2.00000

 Dipole moment (field-independent basis, Debye):
    X=              0.0000    Y=              0.0000    Z=              4.1556  Tot=              4.1556
 Quadrupole moment (field-independent basis, Debye-Ang):
   XX=            -21.9170   YY=            -21.9170   ZZ=            -29.5501
   XY=             -0.0000   XZ=              0.0000   YZ=              0.0000

 1\1\GINC-C477-064\SP\ROCCSD(T)-RW\Gen\O1Ti1(3)\AANNABE\14-Mar-2018\0\\
 #P ROCCSD(T)=(maxcyc=150, Window=(7,0), SaveAmplitudes, ReadAmplitudes
 )/Gen 5d 7f SCF=(maxcycles=300) Integral(NoXCTest, DKHSO) MaxDisk=500G
 B Pop=Regular Guess=Read\\TiO\\0,3\Ti,0,0.,0.,0.\O,0,0.,0.,1.6\\Versio
 n=ES64L-G16RevA.03\HF=-927.7165656\MP2=-928.4669774\PUHF=-927.7165656\
 PMP2-0=-928.4669774\CCSD=-928.4462989\CCSD(T)=-928.4906213\RMSD=2.151e
 -09\PG=C*V [C*(O1Ti1)]\\@

 Normal termination of Gaussian 16 at Wed Mar 14 14:58:14 2018.
