 Gaussian 16, Revision A.03,
 Gaussian 16:  ES64L-G16RevA.03 25-Dec-2016

 ----------------------------------------------------------------------
 #P ROCCSD(T)=(maxcyc=150, Full, SaveAmplitudes, ReadAmplitudes)/Gen 5d
  7f SCF=(maxcycles=300) Integral(NoXCTest) MaxDisk=500GB Pop=Regular P
 seudo=Read Guess=Read
 ----------------------------------------------------------------------

 ---
 CrH
 ---
 Symbolic Z-matrix:
 Charge =  0 Multiplicity = 6

                         Standard orientation:
 ---------------------------------------------------------------------
 Center     Atomic      Atomic             Coordinates (Angstroms)
 Number     Number       Type             X           Y           Z
 ---------------------------------------------------------------------
      1         24           0        0.000000    0.000000    0.076000
      2          1           0        0.000000    0.000000   -1.824000
 ---------------------------------------------------------------------

 SCF Done:  E(ROHF) =  -86.8742314712     A.U. after   23 cycles
 E2 =    -0.5636948902D+00 EUMP2 =    -0.87437926361368D+02
 CCSD(T)
 CCSD(T)= -0.87488084223D+02

 The electronic state is 6-SG.
 Alpha  occ. eigenvalues --   -3.69568  -2.46024  -2.46024  -2.40999  -0.56842
 Alpha  occ. eigenvalues --   -0.56842  -0.53337  -0.53337  -0.38856  -0.26607
 Alpha virt. eigenvalues --    0.01033   0.01033   0.01934   0.02471   0.04568
 Alpha virt. eigenvalues --    0.04782   0.04782   0.05287   0.05287   0.05649
 Alpha virt. eigenvalues --    0.05649   0.06832   0.09626   0.12242   0.16340

 Mulliken charges and spin densities:
               1          2
     1  Cr   0.333202   4.977103
     2  H   -0.333202   0.022897
 Sum of Mulliken charges =  -0.00000   5.00000

 Dipole moment (field-independent basis, Debye):
    X=              0.0000    Y=              0.0000    Z=              2.5667  Tot=              2.5667
 Quadrupole moment (field-independent basis, Debye-Ang):
   XX=            -17.0349   YY=            -17.0349   ZZ=            -26.1104
   XY=              0.0000   XZ=              0.0000   YZ=              0.0000

 \\#P ROCCSD(T)=(maxcyc=150, Full, SaveAmplitudes, ReadAmplitudes)/Gen
 742315\PMP2-0=-87.4379264\CCSD=-87.4710767\CCSD(T)=-87.4880842\RMSD=6.
 Normal termination of Gaussian 16 at Mon Feb 26 13:47:35 2018.
