 Gaussian 16, Revision A.03,
 Gaussian 16:  ES64L-G16RevA.03 25-Dec-2016

 ----------------------------------------------------------------------
 #P ROCCSD(T)=(maxcyc=150, Full, SaveAmplitudes, ReadAmplitudes)/Gen 5d
  7f SCF=(maxcycles=300) Integral(NoXCTest) MaxDisk=500GB Pop=Regular P
 seudo=Read Guess=Read
 ----------------------------------------------------------------------

 ---
 TiO
 ---
 Symbolic Z-matrix:
 Charge =  0 Multiplicity = 3

                         Standard orientation:
 ---------------------------------------------------------------------
 Center     Atomic      Atomic             Coordinates (Angstroms)
 Number     Number       Type             X           Y           Z
 ---------------------------------------------------------------------
      1         22           0        0.000000    0.000000    0.320000
      2          8           0        0.000000    0.000000   -0.880000
 ---------------------------------------------------------------------

 SCF Done:  E(ROHF) =  -73.2576194363     A.U. after   21 cycles
 E2 =    -0.7691006036D+00 EUMP2 =    -0.74026720039946D+02
 CCSD(T)
 CCSD(T)= -0.74050406644D+02

 Unable to determine electronic state:  an orbital has unidentified symmetry.
 Alpha  occ. eigenvalues --   -2.97627  -1.99359  -1.79167  -1.79167  -1.10976
 Alpha  occ. eigenvalues --   -0.65389  -0.65389  -0.54209  -0.32346  -0.20068
 Alpha virt. eigenvalues --    0.01201   0.01201   0.01883   0.02587   0.03721
 Alpha virt. eigenvalues --    0.03721   0.03785   0.03826   0.03881   0.04776
 Alpha virt. eigenvalues --    0.04776   0.07236   0.10420   0.10890   0.11073

 Mulliken charges and spin densities:
               1          2
     1  Ti   0.834204   2.019071
     2  O   -0.834204  -0.019071
 Sum of Mulliken charges =  -0.00000   2.00000

 Dipole moment (field-independent basis, Debye):
    X=              0.0000    Y=              0.0000    Z=             -0.6890  Tot=              0.6890
 Quadrupole moment (field-independent basis, Debye-Ang):
   XX=            -22.4408   YY=            -22.4408   ZZ=            -26.4691
   XY=              0.0000   XZ=              0.0000   YZ=              0.0000

 \\#P ROCCSD(T)=(maxcyc=150, Full, SaveAmplitudes, ReadAmplitudes)/Gen
 =-74.02672\CCSD=-74.0168159\CCSD(T)=-74.0504066\RMSD=7.190e-10\PG=C*V
 Normal termination of Gaussian 16 at Mon Mar 12 15:33:58 2018.
