 Gaussian 16, Revision A.03,
 Gaussian 16:  ES64L-G16RevA.03 25-Dec-2016

 ----------------------------------------------------------------------
 #P ROCCSD(T)=(maxcyc=150, Full, SaveAmplitudes, ReadAmplitudes)/Gen 5d
  7f SCF=(maxcycles=300) Integral(NoXCTest) MaxDisk=500GB Pop=Regular P
 seudo=Read Guess=Read
 ----------------------------------------------------------------------

 ---
 CrO
 ---
 Symbolic Z-matrix:
 Charge =  0 Multiplicity = 5

                         Standard orientation:
 ---------------------------------------------------------------------
 Center     Atomic      Atomic             Coordinates (Angstroms)
 Number     Number       Type             X           Y           Z
 ---------------------------------------------------------------------
      1         24           0        0.000000    0.000000    0.375000
      2          8           0        0.000000    0.000000   -1.125000
 ---------------------------------------------------------------------

 SCF Done:  E(ROHF) =  -102.003045564     A.U. after   22 cycles
 E2 =    -0.9198836722D+00 EUMP2 =    -0.10292292923630D+03
 CCSD(T)
 CCSD(T)= -0.10294320087D+03

 Unable to determine electronic state:  an orbital has unidentified symmetry.
 Alpha  occ. eigenvalues --   -3.78138  -2.49156  -2.45096  -2.42448  -1.21024
 Alpha  occ. eigenvalues --   -0.63580  -0.57784  -0.56322  -0.50374  -0.47859
 Alpha  occ. eigenvalues --   -0.39733  -0.30290
 Alpha virt. eigenvalues --    0.00764   0.00982   0.01772   0.02785   0.04254
 Alpha virt. eigenvalues --    0.04458   0.05339   0.05341   0.05491   0.05781
 Alpha virt. eigenvalues --    0.06062   0.06502   0.10606   0.13308   0.13358

 Mulliken charges and spin densities:
               1          2
     1  Cr   1.005017   3.884949
     2  O   -1.005017   0.115051
 Sum of Mulliken charges =  -0.00000   4.00000

 Dipole moment (field-independent basis, Debye):
    X=              0.0000    Y=              0.0000    Z=              4.5437  Tot=              4.5437
 Quadrupole moment (field-independent basis, Debye-Ang):
   XX=            -20.7077   YY=            -19.6160   ZZ=            -24.2617
   XY=              0.0000   XZ=              0.0000   YZ=              0.0000

 \\#P ROCCSD(T)=(maxcyc=150, Full, SaveAmplitudes, ReadAmplitudes)/Gen
 MP2-0=-102.9229292\CCSD=-102.8933138\CCSD(T)=-102.9432009\RMSD=2.325e-
 Normal termination of Gaussian 16 at Tue Mar 13 05:48:17 2018.
