 Gaussian 16, Revision A.03,
 Gaussian 16:  ES64L-G16RevA.03 25-Dec-2016

 ----------------------------------------------------------------------
 #P ROCCSD(T)=(maxcyc=150, Full, SaveAmplitudes, ReadAmplitudes)/Gen 5d
  7f SCF=(maxcycles=300) Integral(NoXCTest) MaxDisk=500GB Pop=Regular P
 seudo=Read Guess=Read IOp(5/15=2)
 ----------------------------------------------------------------------

 ---
 TiO
 ---
 Symbolic Z-matrix:
 Charge =  0 Multiplicity = 3

                         Standard orientation:
 ---------------------------------------------------------------------
 Center     Atomic      Atomic             Coordinates (Angstroms)
 Number     Number       Type             X           Y           Z
 ---------------------------------------------------------------------
      1         22           0        0.000000    0.000000    0.480000
      2          8           0        0.000000    0.000000   -1.320000
 ---------------------------------------------------------------------

 SCF Done:  E(ROHF) =  -73.4958970209     A.U. after   22 cycles
 E2 =    -0.7562564925D+00 EUMP2 =    -0.74252153513414D+02
 CCSD(T)
 CCSD(T)= -0.74288032909D+02

 Unable to determine electronic state:  an orbital has unidentified symmetry.
 Alpha  occ. eigenvalues --   -3.09355  -1.94902  -1.94902  -1.90762  -1.14015
 Alpha  occ. eigenvalues --   -0.50179  -0.43346  -0.39493  -0.39493  -0.28807
 Alpha virt. eigenvalues --   -0.00531  -0.00531   0.00787   0.02199   0.03549
 Alpha virt. eigenvalues --    0.03549   0.04113   0.04676   0.05074   0.05921
 Alpha virt. eigenvalues --    0.05921   0.06162   0.08493   0.10795   0.11773

 Mulliken charges and spin densities:
               1          2
     1  Ti   0.966437   1.987585
     2  O   -0.966437   0.012415
 Sum of Mulliken charges =  -0.00000   2.00000

 Dipole moment (field-independent basis, Debye):
    X=              0.0000    Y=              0.0000    Z=              6.0584  Tot=              6.0584
 Quadrupole moment (field-independent basis, Debye-Ang):
   XX=            -21.5577   YY=            -21.5577   ZZ=            -30.4632
   XY=              0.0000   XZ=              0.0000   YZ=              0.0000

 \\#P ROCCSD(T)=(maxcyc=150, Full, SaveAmplitudes, ReadAmplitudes)/Gen
 5827\CCSD(T)=-74.2880329\RMSD=8.056e-09\PG=C*V [C*(O1Ti1)]\\@
 Normal termination of Gaussian 16 at Mon Mar 12 14:25:37 2018.
