 Gaussian 16, Revision A.03,
 Gaussian 16:  ES64L-G16RevA.03 25-Dec-2016

 ----------------------------------------------------------------------
 #P ROCCSD(T)=(maxcyc=150, Full)/Gen 5d 7f SCF=(maxcycles=300, NoVarAcc
 , VShift=300) Integral(NoXCTest, DKHSO) MaxDisk=100GB Pop=Regular Gues
 s=Read IOp(5/15=2)
 ----------------------------------------------------------------------

 --
 Cr
 --
 Symbolic Z-matrix:
 Charge =  0 Multiplicity = 7

                         Standard orientation:
 ---------------------------------------------------------------------
 Center     Atomic      Atomic             Coordinates (Angstroms)
 Number     Number       Type             X           Y           Z
 ---------------------------------------------------------------------
      1         24           0        0.000000    0.000000    0.000000
 ---------------------------------------------------------------------

 SCF Done:  E(ROHF) =  -1049.66340244     A.U. after    2 cycles
 E2 =    -0.9136224581D+00 EUMP2 =    -0.10505770248990D+04
 CCSD(T)
 CCSD(T)= -0.10505752101D+04

 The electronic state is 7-A1G.
 Alpha  occ. eigenvalues -- -222.03490 -26.60985 -22.24635 -22.24635 -22.24635
 Alpha  occ. eigenvalues --   -3.51427  -2.27190  -2.27190  -2.27190  -0.36688
 Alpha  occ. eigenvalues --   -0.36688  -0.36688  -0.36688  -0.36688  -0.22621
 Alpha virt. eigenvalues --    0.01794   0.01794   0.01794   0.03171   0.06517
 Alpha virt. eigenvalues --    0.06517   0.06517   0.07935   0.07935   0.07935
 Alpha virt. eigenvalues --    0.07935   0.07935   0.21080   0.23189   0.23189

 Mulliken charges and spin densities:
               1          2
     1  Cr   0.000000   6.000000
 Sum of Mulliken charges =   0.00000   6.00000

 Dipole moment (field-independent basis, Debye):
    X=              0.0000    Y=              0.0000    Z=              0.0000  Tot=              0.0000
 Quadrupole moment (field-independent basis, Debye-Ang):
   XX=            -16.7654   YY=            -16.7654   ZZ=            -16.7654
   XY=             -0.0000   XZ=             -0.0000   YZ=              0.0000

 1\1\GINC-C506-012\SP\ROCCSD(T)-Full\Gen\Cr1(7)\AANNABE\26-Feb-2018\0\\
 #P ROCCSD(T)=(maxcyc=150, Full)/Gen 5d 7f SCF=(maxcycles=300, NoVarAcc
 , VShift=300) Integral(NoXCTest, DKHSO) MaxDisk=100GB Pop=Regular Gues
 s=Read IOp(5/15=2)\\Cr\\0,7\Cr,0,0.,0.,0.\\Version=ES64L-G16RevA.03\St
 ate=7-A1G\HF=-1049.6634024\MP2=-1050.5770249\MP3=-1050.5525079\PUHF=-1
 049.6634024\PMP2-0=-1050.5770249\MP4SDQ=-1050.560213\CCSD=-1050.558056
 9\CCSD(T)=-1050.5752101\RMSD=2.263e-09\PG=OH [O(Cr1)]\\@

 Normal termination of Gaussian 16 at Mon Feb 26 19:53:38 2018.
