 Gaussian 16, Revision A.03,
 Gaussian 16:  ES64L-G16RevA.03 25-Dec-2016

 ----------------------------------------------------------------------
 #P ROCCSD(T)=(maxcyc=150, Full, SaveAmplitudes, ReadAmplitudes)/Gen 5d
  7f SCF=(maxcycles=300) Integral(NoXCTest) MaxDisk=500GB Pop=Regular P
 seudo=Read Guess=Read IOp(5/15=2)
 ----------------------------------------------------------------------

 ---
 TiO
 ---
 Symbolic Z-matrix:
 Charge =  0 Multiplicity = 3

                         Standard orientation:
 ---------------------------------------------------------------------
 Center     Atomic      Atomic             Coordinates (Angstroms)
 Number     Number       Type             X           Y           Z
 ---------------------------------------------------------------------
      1         22           0        0.000000    0.000000    0.506667
      2          8           0        0.000000    0.000000   -1.393333
 ---------------------------------------------------------------------

 SCF Done:  E(ROHF) =  -73.4728958870     A.U. after   23 cycles
 E2 =    -0.7575944368D+00 EUMP2 =    -0.74230490323873D+02
 CCSD(T)
 CCSD(T)= -0.74268275636D+02

 Unable to determine electronic state:  an orbital has unidentified symmetry.
 Alpha  occ. eigenvalues --   -3.10950  -1.97416  -1.97416  -1.92851  -1.12228
 Alpha  occ. eigenvalues --   -0.52782  -0.41255  -0.37262  -0.37262  -0.29989
 Alpha virt. eigenvalues --   -0.00900  -0.00900  -0.00021   0.01981   0.03340
 Alpha virt. eigenvalues --    0.03340   0.03707   0.04486   0.05031   0.05958
 Alpha virt. eigenvalues --    0.05958   0.06104   0.07588   0.10571   0.10578

 Mulliken charges and spin densities:
               1          2
     1  Ti   0.966191   1.985005
     2  O   -0.966191   0.014995
 Sum of Mulliken charges =  -0.00000   2.00000

 Dipole moment (field-independent basis, Debye):
    X=              0.0000    Y=              0.0000    Z=              7.1505  Tot=              7.1505
 Quadrupole moment (field-independent basis, Debye-Ang):
   XX=            -21.6528   YY=            -21.6528   ZZ=            -30.3755
   XY=              0.0000   XZ=              0.0000   YZ=              0.0000

 \\#P ROCCSD(T)=(maxcyc=150, Full, SaveAmplitudes, ReadAmplitudes)/Gen
 2110433\CCSD(T)=-74.2682756\RMSD=6.877e-09\PG=C*V [C*(O1Ti1)]\\@
 Normal termination of Gaussian 16 at Tue Mar 13 01:10:31 2018.
