 Gaussian 16, Revision A.03,
 Gaussian 16:  ES64L-G16RevA.03 25-Dec-2016

 ----------------------------------------------------------------------
 #P ROCCSD(T)=(maxcyc=150, Full, SaveAmplitudes, ReadAmplitudes)/Gen 5d
  7f SCF=(maxcycles=300) Integral(NoXCTest) MaxDisk=500GB Pop=Regular P
 seudo=Read Guess=Read
 ----------------------------------------------------------------------

 ---
 CrH
 ---
 Symbolic Z-matrix:
 Charge =  0 Multiplicity = 6

                         Standard orientation:
 ---------------------------------------------------------------------
 Center     Atomic      Atomic             Coordinates (Angstroms)
 Number     Number       Type             X           Y           Z
 ---------------------------------------------------------------------
      1         24           0        0.000000    0.000000    0.044000
      2          1           0        0.000000    0.000000   -1.056000
 ---------------------------------------------------------------------

 SCF Done:  E(ROHF) =  -86.7157870458     A.U. after   38 cycles
 E2 =    -0.6371913224D+00 EUMP2 =    -0.87352978368196D+02
 CCSD(T)
 CCSD(T)= -0.87368998979D+02

 The electronic state is 6-SG.
 Alpha  occ. eigenvalues --   -3.57049  -2.33138  -2.32809  -2.32809  -0.48130
 Alpha  occ. eigenvalues --   -0.43789  -0.43789  -0.40788  -0.40788  -0.24984
 Alpha virt. eigenvalues --    0.01601   0.01731   0.01731   0.02265   0.04699
 Alpha virt. eigenvalues --    0.05504   0.05504   0.05518   0.05518   0.05860
 Alpha virt. eigenvalues --    0.05860   0.05958   0.09363   0.13423   0.16840

 Mulliken charges and spin densities:
               1          2
     1  Cr   0.343667   5.004761
     2  H   -0.343667  -0.004761
 Sum of Mulliken charges =  -0.00000   5.00000

 Dipole moment (field-independent basis, Debye):
    X=              0.0000    Y=              0.0000    Z=              2.0314  Tot=              2.0314
 Quadrupole moment (field-independent basis, Debye-Ang):
   XX=            -16.4541   YY=            -16.4541   ZZ=            -17.9741
   XY=              0.0000   XZ=              0.0000   YZ=              0.0000

 \\#P ROCCSD(T)=(maxcyc=150, Full, SaveAmplitudes, ReadAmplitudes)/Gen
 5787\PMP2-0=-87.3529784\CCSD=-87.3462774\CCSD(T)=-87.368999\RMSD=3.114
 Normal termination of Gaussian 16 at Sun Feb 25 18:45:28 2018.
