 Gaussian 16, Revision A.03,
 Gaussian 16:  ES64L-G16RevA.03 25-Dec-2016

 ----------------------------------------------------------------------
 #P ROCCSD(T)=(maxcyc=150, Full, SaveAmplitudes, ReadAmplitudes)/Gen 5d
  7f SCF=(maxcycles=300) Integral(NoXCTest) MaxDisk=500GB Pop=Regular P
 seudo=Read Guess=Read
 ----------------------------------------------------------------------

 ---
 CrO
 ---
 Symbolic Z-matrix:
 Charge =  0 Multiplicity = 5

                         Standard orientation:
 ---------------------------------------------------------------------
 Center     Atomic      Atomic             Coordinates (Angstroms)
 Number     Number       Type             X           Y           Z
 ---------------------------------------------------------------------
      1         24           0        0.000000    0.000000    0.450000
      2          8           0        0.000000    0.000000   -1.350000
 ---------------------------------------------------------------------

 SCF Done:  E(ROHF) =  -101.808859830     A.U. after  231 cycles
 E2 =    -0.8865229628D+00 EUMP2 =    -0.10269538279243D+03
 CCSD(T)
 CCSD(T)= -0.10274632838D+03

 Unable to determine electronic state:  an orbital has unidentified symmetry.
 Alpha  occ. eigenvalues --   -3.74165  -2.51476  -2.46567  -2.45714  -1.09724
 Alpha  occ. eigenvalues --   -0.57204  -0.55745  -0.55072  -0.51924  -0.34147
 Alpha  occ. eigenvalues --   -0.32795  -0.32658
 Alpha virt. eigenvalues --   -0.04646   0.00592   0.01171   0.01336   0.03096
 Alpha virt. eigenvalues --    0.04453   0.05191   0.05191   0.05593   0.06077
 Alpha virt. eigenvalues --    0.06153   0.06513   0.10616   0.11290   0.12982

 Mulliken charges and spin densities:
               1          2
     1  Cr   1.114938   3.943683
     2  O   -1.114938   0.056317
 Sum of Mulliken charges =  -0.00000   4.00000

 Dipole moment (field-independent basis, Debye):
    X=              0.0000    Y=              0.0000    Z=              9.7832  Tot=              9.7832
 Quadrupole moment (field-independent basis, Debye-Ang):
   XX=            -19.6196   YY=            -18.7832   ZZ=            -24.0279
   XY=              0.0000   XZ=              0.0000   YZ=              0.0000

 \\#P ROCCSD(T)=(maxcyc=150, Full, SaveAmplitudes, ReadAmplitudes)/Gen
 287\CCSD(T)=-102.7463284\RMSD=6.054e-09\PG=C*V [C*(O1Cr1)]\\@
 Normal termination of Gaussian 16 at Fri Mar  9 17:56:04 2018.
