 Gaussian 16, Revision A.03,
 Gaussian 16:  ES64L-G16RevA.03 25-Dec-2016

 ----------------------------------------------------------------------
 #P ROCCSD(T)=(maxcyc=150, Full)/Gen 5d 7f SCF=(maxcycles=300) Integral
 (NoXCTest) MaxDisk=500GB Pop=Regular Pseudo=Read IOp(5/15=2) Guess=Rea
 d
 ----------------------------------------------------------------------

 ---
 ScH
 ---
 Symbolic Z-matrix:
 Charge =  0 Multiplicity = 1

                         Standard orientation:
 ---------------------------------------------------------------------
 Center     Atomic      Atomic             Coordinates (Angstroms)
 Number     Number       Type             X           Y           Z
 ---------------------------------------------------------------------
      1         21           0        0.000000    0.000000    0.068182
      2          1           0        0.000000    0.000000   -1.431818
 ---------------------------------------------------------------------

 SCF Done:  E(ROHF) =  -46.5795545559     A.U. after   11 cycles
 E2 =    -0.4260078166D+00 EUMP2 =    -0.47005562372557D+02
 CCSD(T)
 CCSD(T)= -0.47045569481D+02

 The electronic state is 1-SG.
 Alpha  occ. eigenvalues --   -2.66227  -1.64273  -1.63259  -1.63259  -0.44150
 Alpha  occ. eigenvalues --   -0.22242
 Alpha virt. eigenvalues --    0.01243   0.01243   0.01545   0.01904   0.02880
 Alpha virt. eigenvalues --    0.02880   0.02902   0.02902   0.02916   0.04305
 Alpha virt. eigenvalues --    0.04305   0.04441   0.07861   0.07884   0.07884

 Mulliken charges and spin densities:
               1          2
     1  Sc   0.312757   0.000000
     2  H   -0.312757   0.000000
 Sum of Mulliken charges =  -0.00000   0.00000

 Dipole moment (field-independent basis, Debye):
    X=              0.0000    Y=              0.0000    Z=              0.8100  Tot=              0.8100
 Quadrupole moment (field-independent basis, Debye-Ang):
   XX=            -23.3823   YY=            -23.3823   ZZ=            -24.5355
   XY=              0.0000   XZ=              0.0000   YZ=              0.0000

 P ROCCSD(T)=(maxcyc=150, Full)/Gen 5d 7f SCF=(maxcycles=300) Integral(
 PMP2-0=-47.0055624\MP4SDQ=-47.0272282\CCSD=-47.026802\CCSD(T)=-47.0455
 Normal termination of Gaussian 16 at Wed Feb 14 00:02:46 2018.
