 Gaussian 16, Revision A.03,
 Gaussian 16:  ES64L-G16RevA.03 25-Dec-2016

 ----------------------------------------------------------------------
 #P ROCCSD(T)=(MaxCyc=150, Full)/Gen SCF=(maxcycle=400, vshift=200) Pse
 udo=Read Integral(NoXCTest) Pop=Regular MaxDisk=500GB Guess=Read IOp(5
 /15=2)
 ----------------------------------------------------------------------

 ---
 CoH
 ---
 Symbolic Z-matrix:
 Charge =  0 Multiplicity = 3

                         Standard orientation:
 ---------------------------------------------------------------------
 Center     Atomic      Atomic             Coordinates (Angstroms)
 Number     Number       Type             X           Y           Z
 ---------------------------------------------------------------------
      1         27           0        0.000000    0.000000    0.039286
      2          1           0        0.000000    0.000000   -1.060714
 ---------------------------------------------------------------------

 SCF Done:  E(ROHF) =  -145.044066751     A.U. after   37 cycles
 E2 =    -0.8981812208D+00 EUMP2 =    -0.14594224797151D+03
 CCSD(T)
 CCSD(T)= -0.14591595586D+03

 Unable to determine electronic state:  partially filled degenerate orbitals.
 Alpha  occ. eigenvalues --   -4.54875  -2.99764  -2.99038  -2.99038  -0.53510
 Alpha  occ. eigenvalues --   -0.49340  -0.46399  -0.46399  -0.44987  -0.29587
 Alpha virt. eigenvalues --    0.01112   0.02674   0.02674   0.03003   0.06168
 Alpha virt. eigenvalues --    0.09117   0.09117   0.10202   0.11438   0.11460
 Alpha virt. eigenvalues --    0.11460   0.11477   0.11530   0.18672   0.26821

 Mulliken charges and spin densities:
               1          2
     1  Co   0.244778   1.981963
     2  H   -0.244778   0.018037
 Sum of Mulliken charges =  -0.00000   2.00000

 Dipole moment (field-independent basis, Debye):
    X=              0.0000    Y=              0.0000    Z=              3.2260  Tot=              3.2260
 Quadrupole moment (field-independent basis, Debye-Ang):
   XX=            -14.1663   YY=            -14.1663   ZZ=            -15.8408
   XY=              0.0000   XZ=              0.0000   YZ=              0.0000

 \\#P ROCCSD(T)=(MaxCyc=150, Full)/Gen SCF=(maxcycle=400, vshift=200) P
 PMP2-0=-145.942248\MP4SDQ=-145.9123766\CCSD=-145.883396\CCSD(T)=-145.9
 Normal termination of Gaussian 16 at Sun Apr 22 03:50:44 2018.
