 Gaussian 16, Revision A.03,
 Gaussian 16:  ES64L-G16RevA.03 25-Dec-2016

 ----------------------------------------------------------------------
 #P ROCCSD(T)=(MaxCyc=150, Full)/Gen SCF=(maxcycle=400, vshift=200) Pse
 udo=Read Integral(NoXCTest) Pop=Regular MaxDisk=500GB Guess=Read IOp(5
 /15=2)
 ----------------------------------------------------------------------

 ---
 CoH
 ---
 Symbolic Z-matrix:
 Charge =  0 Multiplicity = 3

                         Standard orientation:
 ---------------------------------------------------------------------
 Center     Atomic      Atomic             Coordinates (Angstroms)
 Number     Number       Type             X           Y           Z
 ---------------------------------------------------------------------
      1         27           0        0.000000    0.000000    0.039286
      2          1           0        0.000000    0.000000   -1.060714
 ---------------------------------------------------------------------

 SCF Done:  E(ROHF) =  -145.045440146     A.U. after   27 cycles
 E2 =    -0.9399189374D+00 EUMP2 =    -0.14598535908326D+03
 CCSD(T)
 CCSD(T)= -0.14595758093D+03

 Unable to determine electronic state:  partially filled degenerate orbitals.
 Alpha  occ. eigenvalues --   -4.54874  -2.99756  -2.99030  -2.99030  -0.53513
 Alpha  occ. eigenvalues --   -0.49338  -0.46403  -0.46403  -0.44989  -0.29583
 Alpha virt. eigenvalues --    0.01058   0.02453   0.02453   0.02764   0.05961
 Alpha virt. eigenvalues --    0.07102   0.07416   0.07429   0.07518   0.07518
 Alpha virt. eigenvalues --    0.08291   0.08291   0.09664   0.18761   0.21757

 Mulliken charges and spin densities:
               1          2
     1  Co   0.469778   2.004081
     2  H   -0.469778  -0.004081
 Sum of Mulliken charges =   0.00000   2.00000

 Dipole moment (field-independent basis, Debye):
    X=              0.0000    Y=              0.0000    Z=              3.2255  Tot=              3.2255
 Quadrupole moment (field-independent basis, Debye-Ang):
   XX=            -14.1576   YY=            -14.1576   ZZ=            -15.8363
   XY=              0.0000   XZ=              0.0000   YZ=              0.0000

 \\#P ROCCSD(T)=(MaxCyc=150, Full)/Gen SCF=(maxcycle=400, vshift=200) P
 \PMP2-0=-145.9853591\MP4SDQ=-145.951728\CCSD=-145.9234036\CCSD(T)=-145
 Normal termination of Gaussian 16 at Sun Apr 22 04:33:42 2018.
