 Gaussian 16, Revision A.03,
 Gaussian 16:  ES64L-G16RevA.03 25-Dec-2016

 ----------------------------------------------------------------------
 #P ROCCSD(T)=(maxcyc=150, Full, SaveAmplitudes, ReadAmplitudes)/Gen 5d
  7f SCF=(maxcycles=300) Integral(NoXCTest) MaxDisk=500GB Pop=Regular P
 seudo=Read Guess=Read IOp(5/15=2)
 ----------------------------------------------------------------------

 ---
 ScO
 ---
 Symbolic Z-matrix:
 Charge =  0 Multiplicity = 2

                         Standard orientation:
 ---------------------------------------------------------------------
 Center     Atomic      Atomic             Coordinates (Angstroms)
 Number     Number       Type             X           Y           Z
 ---------------------------------------------------------------------
      1         21           0        0.000000    0.000000    0.524138
      2          8           0        0.000000    0.000000   -1.375862
 ---------------------------------------------------------------------

 SCF Done:  E(ROHF) =  -61.9247058327     A.U. after   17 cycles
 E2 =    -0.6913582121D+00 EUMP2 =    -0.62616064044824D+02
 CCSD(T)
 CCSD(T)= -0.62648701859D+02

 The electronic state is 2-SG.
 Alpha  occ. eigenvalues --   -2.71693  -1.68768  -1.68702  -1.68702  -1.11001
 Alpha  occ. eigenvalues --   -0.40288  -0.36495  -0.36495  -0.27454
 Alpha virt. eigenvalues --   -0.00875  -0.00875   0.00899   0.01954   0.03043
 Alpha virt. eigenvalues --    0.03043   0.03350   0.03350   0.04098   0.04315
 Alpha virt. eigenvalues --    0.04315   0.04898   0.06054   0.06054   0.09956

 Mulliken charges and spin densities:
               1          2
     1  Sc   1.209508   0.977351
     2  O   -1.209508   0.022649
 Sum of Mulliken charges =   0.00000   1.00000

 Dipole moment (field-independent basis, Debye):
    X=              0.0000    Y=              0.0000    Z=              6.6333  Tot=              6.6333
 Quadrupole moment (field-independent basis, Debye-Ang):
   XX=            -21.9782   YY=            -21.9782   ZZ=            -34.1218
   XY=              0.0000   XZ=              0.0000   YZ=              0.0000

 \\#P ROCCSD(T)=(maxcyc=150, Full, SaveAmplitudes, ReadAmplitudes)/Gen
 \CCSD=-62.6013449\CCSD(T)=-62.6487019\RMSD=5.050e-09\PG=C*V [C*(O1Sc1)
 Normal termination of Gaussian 16 at Mon Mar  5 18:28:47 2018.
