 Gaussian 16, Revision A.03,
 Gaussian 16:  ES64L-G16RevA.03 25-Dec-2016

 ----------------------------------------------------------------------
 #P ROCCSD(T)=(maxcyc=150, Full, SaveAmplitudes, ReadAmplitudes)/Gen 5d
  7f SCF=(maxcycles=300, VShift=400) Integral(NoXCTest) MaxDisk=500GB P
 op=Full Pseudo=Read Guess=Read IOp(5/15=2)
 ----------------------------------------------------------------------

 ---
 MnH
 ---
 Symbolic Z-matrix:
 Charge =  0 Multiplicity = 7

                         Standard orientation:
 ---------------------------------------------------------------------
 Center     Atomic      Atomic             Coordinates (Angstroms)
 Number     Number       Type             X           Y           Z
 ---------------------------------------------------------------------
      1         25           0        0.000000    0.000000    0.061538
      2          1           0        0.000000    0.000000   -1.538462
 ---------------------------------------------------------------------

 SCF Done:  E(ROHF) =  -103.788273299     A.U. after   34 cycles
 E2 =    -0.5767331429D+00 EUMP2 =    -0.10436500644221D+03
 CCSD(T)
 CCSD(T)= -0.10438683557D+03

 The electronic state is 7-SG.
 Alpha  occ. eigenvalues --   -4.14312  -2.76517  -2.76517  -2.76414  -0.64459
 Alpha  occ. eigenvalues --   -0.64236  -0.64236  -0.63588  -0.63588  -0.41435
 Alpha  occ. eigenvalues --   -0.25712
 Alpha virt. eigenvalues --    0.01308   0.01308   0.02296   0.03159   0.05788
 Alpha virt. eigenvalues --    0.05788   0.08385   0.08491   0.08491   0.08957
 Alpha virt. eigenvalues --    0.08957   0.09584   0.14035   0.20208   0.22758

 Mulliken charges and spin densities:
               1          2
     1  Mn   0.435825   5.957734
     2  H   -0.435825   0.042266
 Sum of Mulliken charges =  -0.00000   6.00000

 Dipole moment (field-independent basis, Debye):
    X=              0.0000    Y=              0.0000    Z=              0.9547  Tot=              0.9547
 Quadrupole moment (field-independent basis, Debye-Ang):
   XX=            -16.1181   YY=            -16.1181   ZZ=            -25.9923
   XY=              0.0000   XZ=              0.0000   YZ=              0.0000

 \\#P ROCCSD(T)=(maxcyc=150, Full, SaveAmplitudes, ReadAmplitudes)/Gen
 4SDQ=-104.3702787\CCSD=-104.3709741\CCSD(T)=-104.3868356\RMSD=9.402e-0
 Normal termination of Gaussian 16 at Thu Apr 19 10:28:30 2018.
