 Gaussian 16, Revision A.03,
 Gaussian 16:  ES64L-G16RevA.03 25-Dec-2016

 ----------------------------------------------------------------------
 #P ROCCSD(T)=(MaxCyc=150, Full)/Gen SCF=(maxcycle=400) Integral(DKHSO,
  NoXCTest) Pop=Regular MaxDisk=500GB Guess=Read IOp(5/15=2)
 ----------------------------------------------------------------------

 ---
 ZnO
 ---
 Symbolic Z-matrix:
 Charge =  0 Multiplicity = 1

                         Standard orientation:
 ---------------------------------------------------------------------
 Center     Atomic      Atomic             Coordinates (Angstroms)
 Number     Number       Type             X           Y           Z
 ---------------------------------------------------------------------
      1         30           0        0.000000    0.000000    0.442105
      2          8           0        0.000000    0.000000   -1.657895
 ---------------------------------------------------------------------

 SCF Done:  E(ROHF) =  -1869.05865605     A.U. after   10 cycles
 E2 =    -0.1864802157D+01 EUMP2 =    -0.18709234582068D+04
 CCSD(T)
 CCSD(T)= -0.18708715237D+04

 The electronic state is 1-SG.
 Alpha  occ. eigenvalues -- -357.61321 -45.37827 -39.18143 -39.18143 -39.18011
 Alpha  occ. eigenvalues --  -20.58644  -5.84670  -3.92571  -3.92571  -3.92516
 Alpha  occ. eigenvalues --   -1.16731  -0.81261  -0.81261  -0.81221  -0.81221
 Alpha  occ. eigenvalues --   -0.80710  -0.46145  -0.46145  -0.34201
 Alpha virt. eigenvalues --   -0.03567   0.02272   0.02272   0.02670   0.03957
 Alpha virt. eigenvalues --    0.07335   0.07335   0.11501   0.16277   0.16801
 Alpha virt. eigenvalues --    0.17984   0.17984   0.18973   0.18973   0.23315

 Mulliken charges and spin densities:
               1          2
     1  Zn   0.560655   0.000000
     2  O   -0.560655   0.000000
 Sum of Mulliken charges =  -0.00000   0.00000

 Dipole moment (field-independent basis, Debye):
    X=              0.0000    Y=              0.0000    Z=              5.0095  Tot=              5.0095
 Quadrupole moment (field-independent basis, Debye-Ang):
   XX=            -19.2611   YY=            -19.2611   ZZ=            -22.1511
   XY=              0.0000   XZ=              0.0000   YZ=              0.0000

 P ROCCSD(T)=(MaxCyc=150, Full)/Gen SCF=(maxcycle=400) Integral(DKHSO,
 =-1870.9234582\MP4SDQ=-1870.8553566\CCSD=-1870.8184545\CCSD(T)=-1870.8
 Normal termination of Gaussian 16 at Fri May  4 20:04:50 2018.
