 Gaussian 16, Revision A.03,
 Gaussian 16:  ES64L-G16RevA.03 25-Dec-2016

 ----------------------------------------------------------------------
 #P ROCCSD(T)=(maxcyc=150, Full, SaveAmplitudes, ReadAmplitudes)/Gen 5d
  7f SCF=(maxcycles=300) Integral(NoXCTest) MaxDisk=500GB Pop=Regular P
 seudo=Read Guess=Read
 ----------------------------------------------------------------------

 ---
 ScO
 ---
 Symbolic Z-matrix:
 Charge =  0 Multiplicity = 2

                         Standard orientation:
 ---------------------------------------------------------------------
 Center     Atomic      Atomic             Coordinates (Angstroms)
 Number     Number       Type             X           Y           Z
 ---------------------------------------------------------------------
      1         21           0        0.000000    0.000000    0.386207
      2          8           0        0.000000    0.000000   -1.013793
 ---------------------------------------------------------------------

 SCF Done:  E(ROHF) =  -61.9818100777     A.U. after   16 cycles
 E2 =    -0.7061718681D+00 EUMP2 =    -0.62687981945764D+02
 CCSD(T)
 CCSD(T)= -0.62712842237D+02

 The electronic state is 2-SG.
 Alpha  occ. eigenvalues --   -2.64101  -1.70961  -1.54307  -1.54307  -1.09309
 Alpha  occ. eigenvalues --   -0.52382  -0.52382  -0.45893  -0.21059
 Alpha virt. eigenvalues --    0.00800   0.00800   0.02022   0.02044   0.02789
 Alpha virt. eigenvalues --    0.02789   0.02943   0.02943   0.02976   0.03921
 Alpha virt. eigenvalues --    0.03921   0.06221   0.07902   0.07902   0.08905

 Mulliken charges and spin densities:
               1          2
     1  Sc   1.127298   1.006862
     2  O   -1.127298  -0.006862
 Sum of Mulliken charges =  -0.00000   1.00000

 Dipole moment (field-independent basis, Debye):
    X=              0.0000    Y=              0.0000    Z=              1.5340  Tot=              1.5340
 Quadrupole moment (field-independent basis, Debye-Ang):
   XX=            -22.2485   YY=            -22.2485   ZZ=            -30.3203
   XY=              0.0000   XZ=              0.0000   YZ=              0.0000

 \\#P ROCCSD(T)=(maxcyc=150, Full, SaveAmplitudes, ReadAmplitudes)/Gen
 818101\PMP2-0=-62.6879819\CCSD=-62.6786722\CCSD(T)=-62.7128422\RMSD=5.
 Normal termination of Gaussian 16 at Wed Feb 21 00:54:56 2018.
