 Gaussian 16, Revision A.03,
 Gaussian 16:  ES64L-G16RevA.03 25-Dec-2016

 ----------------------------------------------------------------------
 #P ROCCSD(T)=(maxcyc=150, Full, SaveAmplitudes, ReadAmplitudes)/Gen 5d
  7f SCF=(maxcycles=300, VShift=400) Integral(NoXCTest) MaxDisk=500GB P
 op=Full Pseudo=Read Guess=Read IOp(5/15=2)
 ----------------------------------------------------------------------

 ---
 ScH
 ---
 Symbolic Z-matrix:
 Charge =  0 Multiplicity = 1

                         Standard orientation:
 ---------------------------------------------------------------------
 Center     Atomic      Atomic             Coordinates (Angstroms)
 Number     Number       Type             X           Y           Z
 ---------------------------------------------------------------------
      1         21           0        0.000000    0.000000    0.077273
      2          1           0        0.000000    0.000000   -1.622727
 ---------------------------------------------------------------------

 SCF Done:  E(ROHF) =  -46.6746302599     A.U. after   24 cycles
 E2 =    -0.4081038437D+00 EUMP2 =    -0.47082734103549D+02
 CCSD(T)
 CCSD(T)= -0.47127330505D+02

 The electronic state is 1-SG.
 Alpha  occ. eigenvalues --   -2.67477  -1.66206  -1.66045  -1.66045  -0.41752
 Alpha  occ. eigenvalues --   -0.22886
 Alpha virt. eigenvalues --    0.01190   0.01190   0.01607   0.02183   0.03539
 Alpha virt. eigenvalues --    0.03858   0.03858   0.03921   0.03921   0.04590
 Alpha virt. eigenvalues --    0.04590   0.04845   0.08663   0.08663   0.09357

 Mulliken charges and spin densities:
               1          2
     1  Sc   0.373216   0.000000
     2  H   -0.373216   0.000000
 Sum of Mulliken charges =  -0.00000   0.00000

 Dipole moment (field-independent basis, Debye):
    X=              0.0000    Y=              0.0000    Z=              1.2063  Tot=              1.2063
 Quadrupole moment (field-independent basis, Debye-Ang):
   XX=            -23.1538   YY=            -23.1538   ZZ=            -26.0744
   XY=              0.0000   XZ=              0.0000   YZ=              0.0000

 P ROCCSD(T)=(maxcyc=150, Full, SaveAmplitudes, ReadAmplitudes)/Gen 5d
 .1094907\CCSD=-47.1091522\CCSD(T)=-47.1273305\RMSD=7.180e-09\PG=C*V [C
 Normal termination of Gaussian 16 at Thu Apr 19 07:44:05 2018.
