 Gaussian 16, Revision A.03,
 Gaussian 16:  ES64L-G16RevA.03 25-Dec-2016

 ----------------------------------------------------------------------
 #P ROCCSD(T)=(maxcyc=150, Full)/Gen 5d 7f SCF=(maxcycles=300) Integral
 (NoXCTest) MaxDisk=500GB Pop=Regular Pseudo=Read Guess=Read
 ----------------------------------------------------------------------

 ---
 ScH
 ---
 Symbolic Z-matrix:
 Charge =  0 Multiplicity = 1

                         Standard orientation:
 ---------------------------------------------------------------------
 Center     Atomic      Atomic             Coordinates (Angstroms)
 Number     Number       Type             X           Y           Z
 ---------------------------------------------------------------------
      1         21           0        0.000000    0.000000    0.081818
      2          1           0        0.000000    0.000000   -1.718182
 ---------------------------------------------------------------------

 SCF Done:  E(ROHF) =  -46.6619026399     A.U. after   10 cycles
 E2 =    -0.4216158147D+00 EUMP2 =    -0.47083518454598D+02
 CCSD(T)
 CCSD(T)= -0.47127387254D+02

 The electronic state is 1-SG.
 Alpha  occ. eigenvalues --   -2.68873  -1.66585  -1.66585  -1.66557  -0.40470
 Alpha  occ. eigenvalues --   -0.23243
 Alpha virt. eigenvalues --    0.01100   0.01100   0.01451   0.01960   0.02848
 Alpha virt. eigenvalues --    0.02848   0.02926   0.02926   0.02954   0.04067
 Alpha virt. eigenvalues --    0.04067   0.04178   0.07239   0.07239   0.07790

 Mulliken charges and spin densities:
               1          2
     1  Sc   0.266303   0.000000
     2  H   -0.266303   0.000000
 Sum of Mulliken charges =  -0.00000   0.00000

 Dipole moment (field-independent basis, Debye):
    X=              0.0000    Y=              0.0000    Z=              1.5099  Tot=              1.5099
 Quadrupole moment (field-independent basis, Debye-Ang):
   XX=            -23.0404   YY=            -23.0404   ZZ=            -26.7796
   XY=              0.0000   XZ=              0.0000   YZ=              0.0000

 P ROCCSD(T)=(maxcyc=150, Full)/Gen 5d 7f SCF=(maxcycles=300) Integral(
 835185\MP4SDQ=-47.107988\CCSD=-47.1079693\CCSD(T)=-47.1273873\RMSD=6.3
 Normal termination of Gaussian 16 at Tue Feb 13 04:49:25 2018.
