 Gaussian 16, Revision A.03,
 Gaussian 16:  ES64L-G16RevA.03 25-Dec-2016

 ----------------------------------------------------------------------
 #P ROCCSD(T)=(MaxCyc=150, Full)/Gen SCF=(maxcycle=400) Pseudo=Read Int
 egral(NoXCTest) Pop=Regular MaxDisk=500GB Guess=Read IOp(5/15=2)
 ----------------------------------------------------------------------

 ---
 CuO
 ---
 Symbolic Z-matrix:
 Charge =  0 Multiplicity = 2

                         Standard orientation:
 ---------------------------------------------------------------------
 Center     Atomic      Atomic             Coordinates (Angstroms)
 Number     Number       Type             X           Y           Z
 ---------------------------------------------------------------------
      1         29           0        0.000000    0.000000    0.259459
      2          8           0        0.000000    0.000000   -0.940541
 ---------------------------------------------------------------------

 SCF Done:  E(ROHF) =  -211.299445720     A.U. after   30 cycles
 E2 =    -0.1389649269D+01 EUMP2 =    -0.21268909498883D+03
 CCSD(T)
 CCSD(T)= -0.21258818899D+03

 Unable to determine electronic state:  an orbital has unidentified symmetry.
 Alpha  occ. eigenvalues --   -5.52590  -3.69587  -3.63143  -3.58722  -1.37939
 Alpha  occ. eigenvalues --   -0.88459  -0.84884  -0.76072  -0.71226  -0.70888
 Alpha  occ. eigenvalues --   -0.50158  -0.46285  -0.35368
 Alpha virt. eigenvalues --    0.00559   0.03144   0.03277   0.03741   0.05528
 Alpha virt. eigenvalues --    0.10774   0.11245   0.13284   0.18771   0.19929
 Alpha virt. eigenvalues --    0.19933   0.20940   0.21443   0.21685   0.25663

 Mulliken charges and spin densities:
               1          2
     1  Cu   0.889885   0.468640
     2  O   -0.889885   0.531360
 Sum of Mulliken charges =  -0.00000   1.00000

 Dipole moment (field-independent basis, Debye):
    X=              0.0000    Y=              0.0000    Z=              3.2892  Tot=              3.2892
 Quadrupole moment (field-independent basis, Debye-Ang):
   XX=            -17.8399   YY=            -18.9733   ZZ=            -18.4343
   XY=              0.0000   XZ=              0.0000   YZ=              0.0000

 \\#P ROCCSD(T)=(MaxCyc=150, Full)/Gen SCF=(maxcycle=400) Pseudo=Read I
 689095\MP4SDQ=-212.612027\CCSD=-212.5353574\CCSD(T)=-212.588189\RMSD=4
 Normal termination of Gaussian 16 at Mon Mar 26 10:29:52 2018.
