 Gaussian 16, Revision A.03,
 Gaussian 16:  ES64L-G16RevA.03 25-Dec-2016

 ----------------------------------------------------------------------
 #P ROCCSD(T)=(MaxCyc=150, Full)/Gen SCF=(maxcycle=400) Pseudo=Read Int
 egral(NoXCTest) Pop=Regular MaxDisk=500GB Guess=Read IOp(5/15=2)
 ----------------------------------------------------------------------

 ---
 CuO
 ---
 Symbolic Z-matrix:
 Charge =  0 Multiplicity = 2

                         Standard orientation:
 ---------------------------------------------------------------------
 Center     Atomic      Atomic             Coordinates (Angstroms)
 Number     Number       Type             X           Y           Z
 ---------------------------------------------------------------------
      1         29           0        0.000000    0.000000    0.259459
      2          8           0        0.000000    0.000000   -0.940541
 ---------------------------------------------------------------------

 SCF Done:  E(ROHF) =  -211.304689500     A.U. after   21 cycles
 E2 =    -0.1453984560D+01 EUMP2 =    -0.21275867406060D+03
 CCSD(T)
 CCSD(T)= -0.21265528481D+03

 Unable to determine electronic state:  an orbital has unidentified symmetry.
 Alpha  occ. eigenvalues --   -5.52560  -3.69541  -3.63109  -3.58694  -1.37883
 Alpha  occ. eigenvalues --   -0.88461  -0.84891  -0.76057  -0.71224  -0.70885
 Alpha  occ. eigenvalues --   -0.50164  -0.46294  -0.35346
 Alpha virt. eigenvalues --    0.00521   0.02778   0.02885   0.03398   0.05162
 Alpha virt. eigenvalues --    0.09384   0.09770   0.11940   0.13784   0.13798
 Alpha virt. eigenvalues --    0.13800   0.14014   0.14264   0.18700   0.22074

 Mulliken charges and spin densities:
               1          2
     1  Cu   0.630214   0.485520
     2  O   -0.630214   0.514480
 Sum of Mulliken charges =  -0.00000   1.00000

 Dipole moment (field-independent basis, Debye):
    X=              0.0000    Y=              0.0000    Z=              3.2773  Tot=              3.2773
 Quadrupole moment (field-independent basis, Debye-Ang):
   XX=            -17.8325   YY=            -18.9536   ZZ=            -18.4386
   XY=              0.0000   XZ=              0.0000   YZ=              0.0000

 \\#P ROCCSD(T)=(MaxCyc=150, Full)/Gen SCF=(maxcycle=400) Pseudo=Read I
 7586741\MP4SDQ=-212.6751332\CCSD=-212.5997432\CCSD(T)=-212.6552848\RMS
 Normal termination of Gaussian 16 at Mon Mar 26 12:50:25 2018.
