 Gaussian 16, Revision A.03,
 Gaussian 16:  ES64L-G16RevA.03 25-Dec-2016

 ----------------------------------------------------------------------
 #P ROCCSD(T)=(maxcyc=150, Full, SaveAmplitudes, ReadAmplitudes)/Gen 5d
  7f SCF=(maxcycles=300) Integral(NoXCTest, DKHSO) MaxDisk=500GB Pop=Re
 gular Guess=Read
 ----------------------------------------------------------------------

 ---
 ScO
 ---
 Symbolic Z-matrix:
 Charge =  0 Multiplicity = 2

                         Standard orientation:
 ---------------------------------------------------------------------
 Center     Atomic      Atomic             Coordinates (Angstroms)
 Number     Number       Type             X           Y           Z
 ---------------------------------------------------------------------
      1         21           0        0.000000    0.000000    0.524138
      2          8           0        0.000000    0.000000   -1.375862
 ---------------------------------------------------------------------

 SCF Done:  E(ROHF) =  -838.239205800     A.U. after   17 cycles
 E2 =    -0.1134342043D+01 EUMP2 =    -0.83937354784237D+03
 CCSD(T)
 CCSD(T)= -0.83939739688D+03

 The electronic state is 2-SG.
 Alpha  occ. eigenvalues -- -166.94053 -20.47314 -19.39393 -15.81589 -15.81589
 Alpha  occ. eigenvalues --  -15.81451  -2.70238  -1.68209  -1.68195  -1.68195
 Alpha  occ. eigenvalues --   -1.09586  -0.40254  -0.36389  -0.36389  -0.27475
 Alpha virt. eigenvalues --   -0.00871  -0.00871   0.00823   0.01809   0.02578
 Alpha virt. eigenvalues --    0.02578   0.02607   0.02607   0.03262   0.03262
 Alpha virt. eigenvalues --    0.03468   0.03925   0.05378   0.05378   0.08863

 Mulliken charges and spin densities:
               1          2
     1  Sc   1.228225   0.983200
     2  O   -1.228225   0.016800
 Sum of Mulliken charges =  -0.00000   1.00000

 Dipole moment (field-independent basis, Debye):
    X=              0.0000    Y=             -0.0000    Z=              6.6464  Tot=              6.6464
 Quadrupole moment (field-independent basis, Debye-Ang):
   XX=            -22.4631   YY=            -22.4631   ZZ=            -34.6811
   XY=              0.0000   XZ=              0.0000   YZ=             -0.0000

 \\#P ROCCSD(T)=(maxcyc=150, Full, SaveAmplitudes, ReadAmplitudes)/Gen
 2058\PMP2-0=-839.3735478\CCSD=-839.3475185\CCSD(T)=-839.3973969\RMSD=2
 Normal termination of Gaussian 16 at Tue Feb 20 23:30:51 2018.
