 Gaussian 16, Revision A.03,
 Gaussian 16:  ES64L-G16RevA.03 25-Dec-2016

 ----------------------------------------------------------------------
 #P ROCCSD(T)=(MaxCyc=150, Full)/Gen SCF=(maxcycle=400) Pseudo=Read Int
 egral(NoXCTest) Pop=Regular MaxDisk=500GB
 ----------------------------------------------------------------------

 --
 Zn
 --
 Symbolic Z-matrix:
 Charge =  0 Multiplicity = 1

                         Standard orientation:
 ---------------------------------------------------------------------
 Center     Atomic      Atomic             Coordinates (Angstroms)
 Number     Number       Type             X           Y           Z
 ---------------------------------------------------------------------
      1         30           0        0.000000    0.000000    0.000000
 ---------------------------------------------------------------------

 SCF Done:  E(ROHF) =  -225.624339285     A.U. after    9 cycles
 E2 =    -0.1105699816D+01 EUMP2 =    -0.22673003910076D+03
 CCSD(T)
 CCSD(T)= -0.22667676239D+03

 The electronic state is 1-A1G.
 Alpha  occ. eigenvalues --   -5.85039  -3.96592  -3.96592  -3.96592  -0.76243
 Alpha  occ. eigenvalues --   -0.76243  -0.76243  -0.76243  -0.76243  -0.29840
 Alpha virt. eigenvalues --    0.02386   0.02386   0.02386   0.02660   0.07394
 Alpha virt. eigenvalues --    0.07394   0.07394   0.13214   0.16240   0.16240
 Alpha virt. eigenvalues --    0.16240   0.16240   0.16240   0.22995   0.22995

 Mulliken charges and spin densities:
               1          2
     1  Zn  -0.000000   0.000000
 Sum of Mulliken charges =  -0.00000   0.00000

 Dipole moment (field-independent basis, Debye):
    X=              0.0000    Y=              0.0000    Z=              0.0000  Tot=              0.0000
 Quadrupole moment (field-independent basis, Debye-Ang):
   XX=            -15.2508   YY=            -15.2508   ZZ=            -15.2508
   XY=              0.0000   XZ=             -0.0000   YZ=              0.0000

 ROCCSD(T)=(MaxCyc=150, Full)/Gen SCF=(maxcycle=400) Pseudo=Read Integr
 D=-226.6464575\CCSD(T)=-226.6767624\RMSD=6.160e-09\PG=OH [O(Zn1)]\\@
 Normal termination of Gaussian 16 at Sat May  5 22:00:58 2018.
