 Gaussian 16, Revision A.03,
 Gaussian 16:  ES64L-G16RevA.03 25-Dec-2016

 ----------------------------------------------------------------------
 #P ROCCSD(T)=(MaxCyc=150, Full)/Gen SCF=(maxcycle=400) Pseudo=Read Int
 egral(NoXCTest) Pop=Regular MaxDisk=500GB
 ----------------------------------------------------------------------

 --
 Zn
 --
 Symbolic Z-matrix:
 Charge =  0 Multiplicity = 1

                         Standard orientation:
 ---------------------------------------------------------------------
 Center     Atomic      Atomic             Coordinates (Angstroms)
 Number     Number       Type             X           Y           Z
 ---------------------------------------------------------------------
      1         30           0        0.000000    0.000000    0.000000
 ---------------------------------------------------------------------

 SCF Done:  E(ROHF) =  -225.624267609     A.U. after   10 cycles
 E2 =    -0.1079208946D+01 EUMP2 =    -0.22670347655452D+03
 CCSD(T)
 CCSD(T)= -0.22665221942D+03

 The electronic state is 1-A1G.
 Alpha  occ. eigenvalues --   -5.85039  -3.96592  -3.96592  -3.96592  -0.76244
 Alpha  occ. eigenvalues --   -0.76244  -0.76244  -0.76244  -0.76244  -0.29839
 Alpha virt. eigenvalues --    0.02479   0.02479   0.02479   0.03248   0.07861
 Alpha virt. eigenvalues --    0.07861   0.07861   0.17615   0.19089   0.19089
 Alpha virt. eigenvalues --    0.19089   0.19089   0.19089   0.25595   0.25595

 Mulliken charges and spin densities:
               1          2
     1  Zn   0.000000   0.000000
 Sum of Mulliken charges =   0.00000   0.00000

 Dipole moment (field-independent basis, Debye):
    X=              0.0000    Y=              0.0000    Z=              0.0000  Tot=              0.0000
 Quadrupole moment (field-independent basis, Debye-Ang):
   XX=            -15.2519   YY=            -15.2519   ZZ=            -15.2519
   XY=              0.0000   XZ=              0.0000   YZ=             -0.0000

 ROCCSD(T)=(MaxCyc=150, Full)/Gen SCF=(maxcycle=400) Pseudo=Read Integr
 SD=-226.622619\CCSD(T)=-226.6522194\RMSD=1.752e-09\PG=OH [O(Zn1)]\\@
 Normal termination of Gaussian 16 at Thu Mar 29 06:44:33 2018.
