 Gaussian 16, Revision A.03,
 Gaussian 16:  ES64L-G16RevA.03 25-Dec-2016

 ----------------------------------------------------------------------
 #P ROCCSD(T)=(MaxCyc=150, Full)/Gen SCF=(maxcycle=400) Pseudo=Read Int
 egral(NoXCTest) Pop=Regular MaxDisk=500GB
 ----------------------------------------------------------------------

 --
 Zn
 --
 Symbolic Z-matrix:
 Charge =  0 Multiplicity = 1

                         Standard orientation:
 ---------------------------------------------------------------------
 Center     Atomic      Atomic             Coordinates (Angstroms)
 Number     Number       Type             X           Y           Z
 ---------------------------------------------------------------------
      1         30           0        0.000000    0.000000    0.000000
 ---------------------------------------------------------------------

 SCF Done:  E(ROHF) =  -225.623460959     A.U. after   10 cycles
 E2 =    -0.1024824152D+01 EUMP2 =    -0.22664828511096D+03
 CCSD(T)
 CCSD(T)= -0.22659778390D+03

 The electronic state is 1-A1G.
 Alpha  occ. eigenvalues --   -5.85043  -3.96601  -3.96601  -3.96601  -0.76243
 Alpha  occ. eigenvalues --   -0.76243  -0.76243  -0.76243  -0.76243  -0.29845
 Alpha virt. eigenvalues --    0.02665   0.02665   0.02665   0.03355   0.08924
 Alpha virt. eigenvalues --    0.08924   0.08924   0.18068   0.26460   0.26460
 Alpha virt. eigenvalues --    0.26460   0.26460   0.26460   0.32161   0.32161

 Mulliken charges and spin densities:
               1          2
     1  Zn  -0.000000   0.000000
 Sum of Mulliken charges =  -0.00000   0.00000

 Dipole moment (field-independent basis, Debye):
    X=              0.0000    Y=              0.0000    Z=              0.0000  Tot=              0.0000
 Quadrupole moment (field-independent basis, Debye-Ang):
   XX=            -15.2523   YY=            -15.2523   ZZ=            -15.2523
   XY=              0.0000   XZ=              0.0000   YZ=             -0.0000

 ROCCSD(T)=(MaxCyc=150, Full)/Gen SCF=(maxcycle=400) Pseudo=Read Integr
 =-226.5700813\CCSD(T)=-226.5977839\RMSD=2.470e-09\PG=OH [O(Zn1)]\\@
 Normal termination of Gaussian 16 at Thu Mar 29 06:17:31 2018.
