 Gaussian 16, Revision A.03,
 Gaussian 16:  ES64L-G16RevA.03 25-Dec-2016

 ----------------------------------------------------------------------
 #P ROCCSD(T)=(maxcyc=150, Full, SaveAmplitudes, ReadAmplitudes)/Gen 5d
  7f SCF=(maxcycles=300) Integral(NoXCTest) MaxDisk=500GB Pop=Regular P
 seudo=Read Guess=Read IOp(5/15=2)
 ----------------------------------------------------------------------

 ---
 ScO
 ---
 Symbolic Z-matrix:
 Charge =  0 Multiplicity = 2

                         Standard orientation:
 ---------------------------------------------------------------------
 Center     Atomic      Atomic             Coordinates (Angstroms)
 Number     Number       Type             X           Y           Z
 ---------------------------------------------------------------------
      1         21           0        0.000000    0.000000    0.358621
      2          8           0        0.000000    0.000000   -0.941379
 ---------------------------------------------------------------------

 SCF Done:  E(ROHF) =  -61.7908933225     A.U. after   19 cycles
 E2 =    -0.6648477158D+00 EUMP2 =    -0.62455741038230D+02
 CCSD(T)
 CCSD(T)= -0.62484657115D+02

 The electronic state is 2-SG.
 Alpha  occ. eigenvalues --   -2.58592  -1.76422  -1.52703  -1.52703  -1.06710
 Alpha  occ. eigenvalues --   -0.57884  -0.57884  -0.47210  -0.19431
 Alpha virt. eigenvalues --    0.00992   0.00992   0.02037   0.02504   0.03783
 Alpha virt. eigenvalues --    0.03783   0.03799   0.03799   0.03902   0.04781
 Alpha virt. eigenvalues --    0.04781   0.07344   0.10855   0.10855   0.11016

 Mulliken charges and spin densities:
               1          2
     1  Sc   1.189231   1.005983
     2  O   -1.189231  -0.005983
 Sum of Mulliken charges =  -0.00000   1.00000

 Dipole moment (field-independent basis, Debye):
    X=              0.0000    Y=              0.0000    Z=              0.1711  Tot=              0.1711
 Quadrupole moment (field-independent basis, Debye-Ang):
   XX=            -22.7686   YY=            -22.7686   ZZ=            -29.5749
   XY=              0.0000   XZ=              0.0000   YZ=              0.0000

 \\#P ROCCSD(T)=(maxcyc=150, Full, SaveAmplitudes, ReadAmplitudes)/Gen
 \CCSD=-62.4546572\CCSD(T)=-62.4846571\RMSD=1.759e-09\PG=C*V [C*(O1Sc1)
 Normal termination of Gaussian 16 at Tue Mar 13 20:57:30 2018.
