 Gaussian 16, Revision A.03,
 Gaussian 16:  ES64L-G16RevA.03 25-Dec-2016

 ----------------------------------------------------------------------
 #P ROCCSD(T)=(maxcyc=150, Full, SaveAmplitudes, ReadAmplitudes)/Gen 5d
  7f SCF=(maxcycles=300) Integral(NoXCTest) MaxDisk=500GB Pop=Regular P
 seudo=Read Guess=Read
 ----------------------------------------------------------------------

 ---
 MnH
 ---
 Symbolic Z-matrix:
 Charge =  0 Multiplicity = 7

                         Standard orientation:
 ---------------------------------------------------------------------
 Center     Atomic      Atomic             Coordinates (Angstroms)
 Number     Number       Type             X           Y           Z
 ---------------------------------------------------------------------
      1         25           0        0.000000    0.000000    0.053846
      2          1           0        0.000000    0.000000   -1.346154
 ---------------------------------------------------------------------

 SCF Done:  E(ROHF) =  -104.206728701     A.U. after   20 cycles
 E2 =    -0.6124827407D+00 EUMP2 =    -0.10481921144221D+03
 CCSD(T)
 CCSD(T)= -0.10483924488D+03

 The electronic state is 7-SG.
 Alpha  occ. eigenvalues --   -4.16943  -2.75950  -2.75721  -2.75721  -0.66049
 Alpha  occ. eigenvalues --   -0.64346  -0.64346  -0.63934  -0.63934  -0.42110
 Alpha  occ. eigenvalues --   -0.24757
 Alpha virt. eigenvalues --    0.01336   0.01336   0.02013   0.03070   0.05199
 Alpha virt. eigenvalues --    0.05199   0.05691   0.05829   0.05829   0.06187
 Alpha virt. eigenvalues --    0.06187   0.08520   0.13920   0.14728   0.17975

 Mulliken charges and spin densities:
               1          2
     1  Mn   0.400737   5.929597
     2  H   -0.400737   0.070403
 Sum of Mulliken charges =  -0.00000   6.00000

 Dipole moment (field-independent basis, Debye):
    X=              0.0000    Y=              0.0000    Z=              0.3010  Tot=              0.3010
 Quadrupole moment (field-independent basis, Debye-Ang):
   XX=            -15.9105   YY=            -15.9105   ZZ=            -25.3828
   XY=              0.0000   XZ=              0.0000   YZ=              0.0000

 \\#P ROCCSD(T)=(maxcyc=150, Full, SaveAmplitudes, ReadAmplitudes)/Gen
 4.2067287\PMP2-0=-104.8192114\CCSD=-104.8219837\CCSD(T)=-104.8392449\R
 Normal termination of Gaussian 16 at Mon Feb 26 04:08:03 2018.
