 Gaussian 16, Revision A.03,
 Gaussian 16:  ES64L-G16RevA.03 25-Dec-2016

 ----------------------------------------------------------------------
 #P ROCCSD(T)=(MaxCyc=150, Full)/Gen SCF=(maxcycle=400, vshift=200) Pse
 udo=Read Integral(NoXCTest) Pop=Regular MaxDisk=500GB Guess=Read IOp(5
 /15=2)
 ----------------------------------------------------------------------

 ---
 FeH
 ---
 Symbolic Z-matrix:
 Charge =  0 Multiplicity = 4

                         Standard orientation:
 ---------------------------------------------------------------------
 Center     Atomic      Atomic             Coordinates (Angstroms)
 Number     Number       Type             X           Y           Z
 ---------------------------------------------------------------------
      1         26           0        0.000000    0.000000    0.055556
      2          1           0        0.000000    0.000000   -1.444444
 ---------------------------------------------------------------------

 SCF Done:  E(ROHF) =  -123.585610448     A.U. after   18 cycles
 E2 =    -0.8193010478D+00 EUMP2 =    -0.12440491149564D+03
 CCSD(T)
 CCSD(T)= -0.12440029096D+03

 Unable to determine electronic state:  an orbital has unidentified symmetry.
 Alpha  occ. eigenvalues --   -4.30031  -2.78203  -2.77355  -2.77355  -0.51063
 Alpha  occ. eigenvalues --   -0.51063  -0.50002  -0.46417  -0.45050  -0.31773
 Alpha virt. eigenvalues --   -0.00237   0.02170   0.02170   0.02549   0.03540
 Alpha virt. eigenvalues --    0.05801   0.06233   0.06243   0.06331   0.06331
 Alpha virt. eigenvalues --    0.07414   0.07414   0.08500   0.13037   0.16882

 Mulliken charges and spin densities:
               1          2
     1  Fe   0.277546   2.994877
     2  H   -0.277546   0.005123
 Sum of Mulliken charges =  -0.00000   3.00000

 Dipole moment (field-independent basis, Debye):
    X=              0.0000    Y=              0.0000    Z=              4.0768  Tot=              4.0768
 Quadrupole moment (field-independent basis, Debye-Ang):
   XX=            -15.7345   YY=            -15.7345   ZZ=            -16.8179
   XY=              0.0000   XZ=              0.0000   YZ=              0.0000

 \\#P ROCCSD(T)=(MaxCyc=150, Full)/Gen SCF=(maxcycle=400, vshift=200) P
 \PMP2-0=-124.4049115\MP4SDQ=-124.3797496\CCSD=-124.3697657\CCSD(T)=-12
 Normal termination of Gaussian 16 at Sat Mar 24 03:17:14 2018.
