 Gaussian 16, Revision A.03,
 Gaussian 16:  ES64L-G16RevA.03 25-Dec-2016

 ----------------------------------------------------------------------
 #P ROCCSD(T)=(MaxCyc=150, Full)/Gen SCF=(maxcycle=400, vshift=200) Pse
 udo=Read Integral(NoXCTest) Pop=Regular MaxDisk=500GB Guess=Read IOp(5
 /15=2)
 ----------------------------------------------------------------------

 ---
 FeH
 ---
 Symbolic Z-matrix:
 Charge =  0 Multiplicity = 4

                         Standard orientation:
 ---------------------------------------------------------------------
 Center     Atomic      Atomic             Coordinates (Angstroms)
 Number     Number       Type             X           Y           Z
 ---------------------------------------------------------------------
      1         26           0        0.000000    0.000000    0.055556
      2          1           0        0.000000    0.000000   -1.444444
 ---------------------------------------------------------------------

 SCF Done:  E(ROHF) =  -123.584284075     A.U. after    2 cycles
 E2 =    -0.7695619204D+00 EUMP2 =    -0.12435384599521D+03
 CCSD(T)
 CCSD(T)= -0.12435339937D+03

 Unable to determine electronic state:  an orbital has unidentified symmetry.
 Alpha  occ. eigenvalues --   -4.30035  -2.78218  -2.77367  -2.77367  -0.51067
 Alpha  occ. eigenvalues --   -0.51067  -0.50004  -0.46411  -0.45046  -0.31770
 Alpha virt. eigenvalues --   -0.00181   0.02471   0.02471   0.03126   0.04355
 Alpha virt. eigenvalues --    0.08494   0.08494   0.09600   0.10265   0.10303
 Alpha virt. eigenvalues --    0.10392   0.10392   0.10663   0.17107   0.24141

 Mulliken charges and spin densities:
               1          2
     1  Fe   0.414607   2.996959
     2  H   -0.414607   0.003041
 Sum of Mulliken charges =   0.00000   3.00000

 Dipole moment (field-independent basis, Debye):
    X=              0.0000    Y=              0.0000    Z=              4.0819  Tot=              4.0819
 Quadrupole moment (field-independent basis, Debye-Ang):
   XX=            -15.7481   YY=            -15.7481   ZZ=            -16.8079
   XY=              0.0000   XZ=              0.0000   YZ=              0.0000

 \\#P ROCCSD(T)=(MaxCyc=150, Full)/Gen SCF=(maxcycle=400, vshift=200) P
 PMP2-0=-124.353846\MP4SDQ=-124.3349322\CCSD=-124.3249956\CCSD(T)=-124.
 Normal termination of Gaussian 16 at Sat Mar 24 00:38:35 2018.
