 Gaussian 16, Revision A.03,
 Gaussian 16:  ES64L-G16RevA.03 25-Dec-2016

 ----------------------------------------------------------------------
 #P ROCCSD(T)=(MaxCyc=150, Full)/Gen SCF=(maxcycle=400, vshift=200) Pse
 udo=Read Integral(NoXCTest) Pop=Regular MaxDisk=500GB Guess=Read IOp(5
 /15=2)
 ----------------------------------------------------------------------

 ---
 FeH
 ---
 Symbolic Z-matrix:
 Charge =  0 Multiplicity = 4

                         Standard orientation:
 ---------------------------------------------------------------------
 Center     Atomic      Atomic             Coordinates (Angstroms)
 Number     Number       Type             X           Y           Z
 ---------------------------------------------------------------------
      1         26           0        0.000000    0.000000    0.055556
      2          1           0        0.000000    0.000000   -1.444444
 ---------------------------------------------------------------------

 SCF Done:  E(ROHF) =  -123.585433506     A.U. after   29 cycles
 E2 =    -0.8050745894D+00 EUMP2 =    -0.12439050809585D+03
 CCSD(T)
 CCSD(T)= -0.12438794300D+03

 Unable to determine electronic state:  partially filled degenerate orbitals.
 Alpha  occ. eigenvalues --   -4.30034  -2.78208  -2.77359  -2.77359  -0.51067
 Alpha  occ. eigenvalues --   -0.51067  -0.50006  -0.46415  -0.45049  -0.31772
 Alpha virt. eigenvalues --   -0.00203   0.02238   0.02238   0.02854   0.04103
 Alpha virt. eigenvalues --    0.06235   0.06806   0.06819   0.06855   0.06855
 Alpha virt. eigenvalues --    0.07763   0.07763   0.09708   0.16692   0.17908

 Mulliken charges and spin densities:
               1          2
     1  Fe   0.297453   2.995356
     2  H   -0.297453   0.004644
 Sum of Mulliken charges =  -0.00000   3.00000

 Dipole moment (field-independent basis, Debye):
    X=              0.0000    Y=              0.0000    Z=              4.0770  Tot=              4.0770
 Quadrupole moment (field-independent basis, Debye-Ang):
   XX=            -15.7367   YY=            -15.7367   ZZ=            -16.8154
   XY=              0.0000   XZ=              0.0000   YZ=              0.0000

 \\#P ROCCSD(T)=(MaxCyc=150, Full)/Gen SCF=(maxcycle=400, vshift=200) P
 \PMP2-0=-124.3905081\MP4SDQ=-124.3679766\CCSD=-124.357973\CCSD(T)=-124
 Normal termination of Gaussian 16 at Sat Mar 24 01:23:28 2018.
