 Gaussian 16, Revision A.03,
 Gaussian 16:  ES64L-G16RevA.03 25-Dec-2016

 ----------------------------------------------------------------------
 #P ROCCSD(T)=(maxcyc=150, Full, SaveAmplitudes, ReadAmplitudes)/Gen 5d
  7f SCF=(maxcycles=300) Integral(NoXCTest) MaxDisk=500GB Pop=Regular P
 seudo=Read Guess=Read IOp(5/15=2)
 ----------------------------------------------------------------------

 ---
 TiO
 ---
 Symbolic Z-matrix:
 Charge =  0 Multiplicity = 3

                         Standard orientation:
 ---------------------------------------------------------------------
 Center     Atomic      Atomic             Coordinates (Angstroms)
 Number     Number       Type             X           Y           Z
 ---------------------------------------------------------------------
      1         22           0        0.000000    0.000000    0.320000
      2          8           0        0.000000    0.000000   -0.880000
 ---------------------------------------------------------------------

 SCF Done:  E(ROHF) =  -73.2543333144     A.U. after   23 cycles
 E2 =    -0.7344329568D+00 EUMP2 =    -0.73988766271215D+02
 CCSD(T)
 CCSD(T)= -0.74014936927D+02

 Unable to determine electronic state:  an orbital has unidentified symmetry.
 Alpha  occ. eigenvalues --   -2.97702  -1.99430  -1.79187  -1.79187  -1.11018
 Alpha  occ. eigenvalues --   -0.65385  -0.65385  -0.54215  -0.32333  -0.20080
 Alpha virt. eigenvalues --    0.01263   0.01263   0.02097   0.02806   0.04902
 Alpha virt. eigenvalues --    0.04902   0.05029   0.05200   0.05366   0.05752
 Alpha virt. eigenvalues --    0.05752   0.08503   0.12374   0.14370   0.14815

 Mulliken charges and spin densities:
               1          2
     1  Ti   0.599487   2.058700
     2  O   -0.599487  -0.058700
 Sum of Mulliken charges =   0.00000   2.00000

 Dipole moment (field-independent basis, Debye):
    X=              0.0000    Y=              0.0000    Z=             -0.6821  Tot=              0.6821
 Quadrupole moment (field-independent basis, Debye-Ang):
   XX=            -22.4441   YY=            -22.4441   ZZ=            -26.4730
   XY=              0.0000   XZ=              0.0000   YZ=              0.0000

 \\#P ROCCSD(T)=(maxcyc=150, Full, SaveAmplitudes, ReadAmplitudes)/Gen
 .9830348\CCSD(T)=-74.0149369\RMSD=3.583e-09\PG=C*V [C*(O1Ti1)]\\@
 Normal termination of Gaussian 16 at Mon Mar 12 14:20:24 2018.
