 Gaussian 16, Revision A.03,
 Gaussian 16:  ES64L-G16RevA.03 25-Dec-2016

 ----------------------------------------------------------------------
 #P ROCCSD(T)=(MaxCyc=150, Full)/Gen SCF=(maxcycle=400, vshift=200) Pse
 udo=Read Integral(NoXCTest) Pop=Regular MaxDisk=500GB Guess=Read IOp(5
 /15=2)
 ----------------------------------------------------------------------

 ---
 ZnH
 ---
 Symbolic Z-matrix:
 Charge =  0 Multiplicity = 2

                         Standard orientation:
 ---------------------------------------------------------------------
 Center     Atomic      Atomic             Coordinates (Angstroms)
 Number     Number       Type             X           Y           Z
 ---------------------------------------------------------------------
      1         30           0        0.000000    0.000000    0.054839
      2          1           0        0.000000    0.000000   -1.645161
 ---------------------------------------------------------------------

 SCF Done:  E(ROHF) =  -225.799720454     A.U. after   19 cycles
 E2 =    -0.1029060522D+01 EUMP2 =    -0.22682878097622D+03
 CCSD(T)
 CCSD(T)= -0.22678351697D+03

 The electronic state is 2-SG.
 Alpha  occ. eigenvalues --   -5.87948  -3.95933  -3.95933  -3.95677  -0.80277
 Alpha  occ. eigenvalues --   -0.80277  -0.79995  -0.79757  -0.79757  -0.44656
 Alpha  occ. eigenvalues --   -0.28148
 Alpha virt. eigenvalues --    0.02016   0.02016   0.02952   0.03851   0.07572
 Alpha virt. eigenvalues --    0.07572   0.08789   0.15887   0.17652   0.23959
 Alpha virt. eigenvalues --    0.23959   0.24883   0.24883   0.25211   0.29446

 Mulliken charges and spin densities:
               1          2
     1  Zn   0.345559   0.918424
     2  H   -0.345559   0.081576
 Sum of Mulliken charges =  -0.00000   1.00000

 Dipole moment (field-independent basis, Debye):
    X=              0.0000    Y=              0.0000    Z=              1.0889  Tot=              1.0889
 Quadrupole moment (field-independent basis, Debye-Ang):
   XX=            -14.7234   YY=            -14.7234   ZZ=            -21.5532
   XY=              0.0000   XZ=              0.0000   YZ=              0.0000

 \\#P ROCCSD(T)=(MaxCyc=150, Full)/Gen SCF=(maxcycle=400, vshift=200) P
 Normal termination of Gaussian 16 at Sat Apr 21 11:00:10 2018.
