 Gaussian 16, Revision A.03,
 Gaussian 16:  ES64L-G16RevA.03 25-Dec-2016

 ----------------------------------------------------------------------
 #P ROCCSD(T)=(MaxCyc=150, Full)/Gen SCF=(maxcycle=400, vshift=200) Pse
 udo=Read Integral(NoXCTest) Pop=Regular MaxDisk=500GB Guess=Read IOp(5
 /15=2)
 ----------------------------------------------------------------------

 ---
 ZnH
 ---
 Symbolic Z-matrix:
 Charge =  0 Multiplicity = 2

                         Standard orientation:
 ---------------------------------------------------------------------
 Center     Atomic      Atomic             Coordinates (Angstroms)
 Number     Number       Type             X           Y           Z
 ---------------------------------------------------------------------
      1         30           0        0.000000    0.000000    0.054839
      2          1           0        0.000000    0.000000   -1.645161
 ---------------------------------------------------------------------

 SCF Done:  E(ROHF) =  -225.800801704     A.U. after   17 cycles
 E2 =    -0.1110426780D+01 EUMP2 =    -0.22691122848423D+03
 CCSD(T)
 CCSD(T)= -0.22686316063D+03

 The electronic state is 2-SG.
 Alpha  occ. eigenvalues --   -5.87941  -3.95920  -3.95920  -3.95669  -0.80273
 Alpha  occ. eigenvalues --   -0.80273  -0.79996  -0.79757  -0.79757  -0.44654
 Alpha  occ. eigenvalues --   -0.28152
 Alpha virt. eigenvalues --    0.01839   0.01839   0.02375   0.03232   0.06206
 Alpha virt. eigenvalues --    0.06206   0.06776   0.12066   0.13159   0.15352
 Alpha virt. eigenvalues --    0.15352   0.15384   0.15384   0.18004   0.20963

 Mulliken charges and spin densities:
               1          2
     1  Zn   0.274065   0.911207
     2  H   -0.274065   0.088793
 Sum of Mulliken charges =  -0.00000   1.00000

 Dipole moment (field-independent basis, Debye):
    X=              0.0000    Y=              0.0000    Z=              1.0922  Tot=              1.0922
 Quadrupole moment (field-independent basis, Debye-Ang):
   XX=            -14.7203   YY=            -14.7203   ZZ=            -21.5487
   XY=              0.0000   XZ=              0.0000   YZ=              0.0000

 \\#P ROCCSD(T)=(MaxCyc=150, Full)/Gen SCF=(maxcycle=400, vshift=200) P
 CCSD(T)=-226.8631606\RMSD=3.431e-09\PG=C*V [C*(H1Zn1)]\\@
 Normal termination of Gaussian 16 at Mon Apr 30 08:38:37 2018.
