 Gaussian 16, Revision A.03,
 Gaussian 16:  ES64L-G16RevA.03 25-Dec-2016

 ----------------------------------------------------------------------
 #P ROCCSD(T)=(MaxCyc=150, Full)/Gen SCF=(maxcycle=400, vshift=200) Pse
 udo=Read Integral(NoXCTest) Pop=Regular MaxDisk=500GB Guess=Read IOp(5
 /15=2)
 ----------------------------------------------------------------------

 ---
 ZnH
 ---
 Symbolic Z-matrix:
 Charge =  0 Multiplicity = 2

                         Standard orientation:
 ---------------------------------------------------------------------
 Center     Atomic      Atomic             Coordinates (Angstroms)
 Number     Number       Type             X           Y           Z
 ---------------------------------------------------------------------
      1         30           0        0.000000    0.000000    0.054839
      2          1           0        0.000000    0.000000   -1.645161
 ---------------------------------------------------------------------

 SCF Done:  E(ROHF) =  -225.800695655     A.U. after   18 cycles
 E2 =    -0.1083912093D+01 EUMP2 =    -0.22688460774821D+03
 CCSD(T)
 CCSD(T)= -0.22683849465D+03

 The electronic state is 2-SG.
 Alpha  occ. eigenvalues --   -5.87941  -3.95920  -3.95920  -3.95670  -0.80273
 Alpha  occ. eigenvalues --   -0.80273  -0.79996  -0.79757  -0.79757  -0.44654
 Alpha  occ. eigenvalues --   -0.28150
 Alpha virt. eigenvalues --    0.01898   0.01898   0.02836   0.03477   0.06623
 Alpha virt. eigenvalues --    0.06623   0.07794   0.14064   0.16581   0.17924
 Alpha virt. eigenvalues --    0.17924   0.18031   0.18031   0.20955   0.23412

 Mulliken charges and spin densities:
               1          2
     1  Zn   0.311858   0.912641
     2  H   -0.311858   0.087359
 Sum of Mulliken charges =  -0.00000   1.00000

 Dipole moment (field-independent basis, Debye):
    X=              0.0000    Y=              0.0000    Z=              1.0917  Tot=              1.0917
 Quadrupole moment (field-independent basis, Debye-Ang):
   XX=            -14.7209   YY=            -14.7209   ZZ=            -21.5510
   XY=              0.0000   XZ=              0.0000   YZ=              0.0000

 \\#P ROCCSD(T)=(MaxCyc=150, Full)/Gen SCF=(maxcycle=400, vshift=200) P
 CCSD(T)=-226.8384947\RMSD=5.118e-09\PG=C*V [C*(H1Zn1)]\\@
 Normal termination of Gaussian 16 at Sat Apr 21 11:53:53 2018.
