 Gaussian 16, Revision A.03,
 Gaussian 16:  ES64L-G16RevA.03 25-Dec-2016

 ----------------------------------------------------------------------
 #P ROCCSD(T)=(maxcyc=150, Full)/Gen 5d 7f SCF=(maxcycles=300, VShift=3
 00) MaxDisk=100GB Pop=Regular Pseudo=Read Guess=Read IOP(3/32=2)
 ----------------------------------------------------------------------

 --
 Ti
 --
 Symbolic Z-matrix:
 Charge =  0 Multiplicity = 3

                         Standard orientation:
 ---------------------------------------------------------------------
 Center     Atomic      Atomic             Coordinates (Angstroms)
 Number     Number       Type             X           Y           Z
 ---------------------------------------------------------------------
      1         22           0        0.000000    0.000000    0.000000
 ---------------------------------------------------------------------

 SCF Done:  E(ROHF) =  -57.5230144416     A.U. after    3 cycles
 E2 =    -0.4296222093D+00 EUMP2 =    -0.57952636650860D+02
 CCSD(T)
 CCSD(T)= -0.57988186757D+02

 Unable to determine electronic state:  an orbital has unidentified symmetry.
 Alpha  occ. eigenvalues --   -2.98815  -1.89618  -1.89618  -1.89618  -0.43840
 Alpha  occ. eigenvalues --   -0.43840  -0.23003
 Alpha virt. eigenvalues --    0.01375   0.01375   0.01375   0.02234   0.03897
 Alpha virt. eigenvalues --    0.03897   0.03897   0.03945   0.03945   0.04812
 Alpha virt. eigenvalues --    0.04812   0.04812   0.10275   0.10275   0.10275

 Mulliken charges and spin densities:
               1          2
     1  Ti  -0.000000   2.000000
 Sum of Mulliken charges =  -0.00000   2.00000

 Dipole moment (field-independent basis, Debye):
    X=              0.0000    Y=             -0.0000    Z=              0.0000  Tot=              0.0000
 Quadrupole moment (field-independent basis, Debye-Ang):
   XX=            -21.9925   YY=            -21.9925   ZZ=            -21.9925
   XY=              0.0000   XZ=              0.0000   YZ=             -0.0000

 1\1\GINC-C506-013\SP\ROCCSD(T)-Full\Gen\Ti1(3)\AANNABE\18-Mar-2018\0\\
 #P ROCCSD(T)=(maxcyc=150, Full)/Gen 5d 7f SCF=(maxcycles=300, VShift=3
 00) MaxDisk=100GB Pop=Regular Pseudo=Read Guess=Read IOP(3/32=2)\\Ti\\
 0,3\Ti,0,0.,0.,0.\\Version=ES64L-G16RevA.03\HF=-57.5230144\MP2=-57.952
 6367\MP3=-57.9717713\PUHF=-57.5230144\PMP2-0=-57.9526367\MP4SDQ=-57.97
 16776\CCSD=-57.9720389\CCSD(T)=-57.9881868\RMSD=5.423e-09\PG=OH [O(Ti1
 )]\\@

 Normal termination of Gaussian 16 at Sun Mar 18 17:22:24 2018.
