 Gaussian 16, Revision A.03,
 Gaussian 16:  ES64L-G16RevA.03 25-Dec-2016

 ----------------------------------------------------------------------
 #P ROCCSD(T)=(maxcyc=150, Full)/Gen 5d 7f SCF=(maxcycles=300) Integral
 (NoXCTest, DKHSO) MaxDisk=500GB Pop=Regular IOp(5/15=2) Guess=Read
 ----------------------------------------------------------------------

 ---
 MnH
 ---
 Symbolic Z-matrix:
 Charge =  0 Multiplicity = 7

                         Standard orientation:
 ---------------------------------------------------------------------
 Center     Atomic      Atomic             Coordinates (Angstroms)
 Number     Number       Type             X           Y           Z
 ---------------------------------------------------------------------
      1         25           0        0.000000    0.000000    0.053846
      2          1           0        0.000000    0.000000   -1.346154
 ---------------------------------------------------------------------

 SCF Done:  E(ROHF) =  -1157.90911609     A.U. after   19 cycles
 E2 =    -0.1013836072D+01 EUMP2 =    -0.11589229521631D+04
 CCSD(T)
 CCSD(T)= -0.11589301972D+04

 The electronic state is 7-SG.
 Alpha  occ. eigenvalues -- -242.49026 -29.59596 -24.95022 -24.95022 -24.94907
 Alpha  occ. eigenvalues --   -4.08586  -2.73963  -2.73713  -2.73713  -0.65180
 Alpha  occ. eigenvalues --   -0.63386  -0.63386  -0.62907  -0.62907  -0.41841
 Alpha  occ. eigenvalues --   -0.24829
 Alpha virt. eigenvalues --    0.01307   0.01307   0.02014   0.03072   0.05158
 Alpha virt. eigenvalues --    0.05158   0.05697   0.05829   0.05829   0.06184
 Alpha virt. eigenvalues --    0.06184   0.08523   0.13930   0.14776   0.17971

 Mulliken charges and spin densities:
               1          2
     1  Mn   0.391046   5.930263
     2  H   -0.391046   0.069737
 Sum of Mulliken charges =  -0.00000   6.00000

 Dipole moment (field-independent basis, Debye):
    X=              0.0000    Y=             -0.0000    Z=              0.2823  Tot=              0.2823
 Quadrupole moment (field-independent basis, Debye-Ang):
   XX=            -16.2721   YY=            -16.2721   ZZ=            -25.7508
   XY=             -0.0000   XZ=              0.0000   YZ=             -0.0000

 \\#P ROCCSD(T)=(maxcyc=150, Full)/Gen 5d 7f SCF=(maxcycles=300) Integr
 Normal termination of Gaussian 16 at Thu Feb 15 00:22:50 2018.
