 Gaussian 16, Revision A.03,
 Gaussian 16:  ES64L-G16RevA.03 25-Dec-2016

 ----------------------------------------------------------------------
 #P ROCCSD(T)=(maxcyc=150, Full, SaveAmplitudes, ReadAmplitudes)/Gen 5d
  7f SCF=(maxcycles=300) Integral(NoXCTest) MaxDisk=500GB Pop=Regular P
 seudo=Read Guess=Read
 ----------------------------------------------------------------------

 ---
 CrO
 ---
 Symbolic Z-matrix:
 Charge =  0 Multiplicity = 5

                         Standard orientation:
 ---------------------------------------------------------------------
 Center     Atomic      Atomic             Coordinates (Angstroms)
 Number     Number       Type             X           Y           Z
 ---------------------------------------------------------------------
      1         24           0        0.000000    0.000000    0.325000
      2          8           0        0.000000    0.000000   -0.975000
 ---------------------------------------------------------------------

 SCF Done:  E(ROHF) =  -101.892362993     A.U. after   22 cycles
 E2 =    -0.9247552998D+00 EUMP2 =    -0.10281711829276D+03
 CCSD(T)
 CCSD(T)= -0.10282681734D+03

 Unable to determine electronic state:  an orbital has unidentified symmetry.
 Alpha  occ. eigenvalues --   -3.74590  -2.44990  -2.43857  -2.40710  -1.25124
 Alpha  occ. eigenvalues --   -0.68900  -0.59676  -0.59460  -0.51650  -0.51237
 Alpha  occ. eigenvalues --   -0.35623  -0.27263
 Alpha virt. eigenvalues --    0.01319   0.01934   0.02277   0.02650   0.04793
 Alpha virt. eigenvalues --    0.05027   0.05421   0.05421   0.05524   0.05696
 Alpha virt. eigenvalues --    0.07590   0.08048   0.10322   0.13898   0.14780

 Mulliken charges and spin densities:
               1          2
     1  Cr   0.852988   3.850854
     2  O   -0.852988   0.149146
 Sum of Mulliken charges =  -0.00000   4.00000

 Dipole moment (field-independent basis, Debye):
    X=              0.0000    Y=              0.0000    Z=              1.8355  Tot=              1.8355
 Quadrupole moment (field-independent basis, Debye-Ang):
   XX=            -21.3295   YY=            -19.6767   ZZ=            -23.4660
   XY=              0.0000   XZ=              0.0000   YZ=              0.0000

 \\#P ROCCSD(T)=(maxcyc=150, Full, SaveAmplitudes, ReadAmplitudes)/Gen
 2-0=-102.8171183\CCSD=-102.7828137\CCSD(T)=-102.8268173\RMSD=8.118e-09
 Normal termination of Gaussian 16 at Tue Mar 13 04:26:37 2018.
