 Gaussian 16, Revision A.03,
 Gaussian 16:  ES64L-G16RevA.03 25-Dec-2016

 ----------------------------------------------------------------------
 #P ROCCSD(T)=(maxcyc=150, Full, SaveAmplitudes, ReadAmplitudes)/Gen 5d
  7f SCF=(maxcycles=300) Integral(NoXCTest) MaxDisk=500GB Pop=Regular P
 seudo=Read Guess=Read
 ----------------------------------------------------------------------

 ---
 MnO
 ---
 Symbolic Z-matrix:
 Charge =  0 Multiplicity = 6

                         Standard orientation:
 ---------------------------------------------------------------------
 Center     Atomic      Atomic             Coordinates (Angstroms)
 Number     Number       Type             X           Y           Z
 ---------------------------------------------------------------------
      1         25           0        0.000000    0.000000    0.290909
      2          8           0        0.000000    0.000000   -0.909091
 ---------------------------------------------------------------------

 SCF Done:  E(ROHF) =  -118.861282483     A.U. after   23 cycles
 E2 =    -0.9781900836D+00 EUMP2 =    -0.11983947256685D+03
 CCSD(T)
 CCSD(T)= -0.11983892322D+03

 The electronic state is 6-SG.
 Alpha  occ. eigenvalues --   -4.13366  -2.80386  -2.76480  -2.76480  -1.29970
 Alpha  occ. eigenvalues --   -0.78621  -0.78621  -0.66111  -0.59723  -0.59723
 Alpha  occ. eigenvalues --   -0.38283  -0.38283  -0.28876
 Alpha virt. eigenvalues --    0.02209   0.02428   0.02428   0.02742   0.05515
 Alpha virt. eigenvalues --    0.06005   0.06005   0.06020   0.06020   0.08105
 Alpha virt. eigenvalues --    0.08105   0.08965   0.10938   0.15157   0.18373

 Mulliken charges and spin densities:
               1          2
     1  Mn   0.951977   4.674144
     2  O   -0.951977   0.325856
 Sum of Mulliken charges =  -0.00000   5.00000

 Dipole moment (field-independent basis, Debye):
    X=              0.0000    Y=              0.0000    Z=              1.2741  Tot=              1.2741
 Quadrupole moment (field-independent basis, Debye-Ang):
   XX=            -20.2037   YY=            -20.2037   ZZ=            -22.3223
   XY=              0.0000   XZ=              0.0000   YZ=              0.0000

 \\#P ROCCSD(T)=(maxcyc=150, Full, SaveAmplitudes, ReadAmplitudes)/Gen
 8.8612825\PMP2-0=-119.8394726\CCSD=-119.7995273\CCSD(T)=-119.8389232\R
 Normal termination of Gaussian 16 at Fri Mar  9 18:06:59 2018.
