 Gaussian 16, Revision A.03,
 Gaussian 16:  ES64L-G16RevA.03 25-Dec-2016

 ----------------------------------------------------------------------
 #P ROCCSD(T)=(maxcyc=150, Full, SaveAmplitudes, ReadAmplitudes)/Gen 5d
  7f SCF=(maxcycles=300) Integral(NoXCTest) MaxDisk=500GB Pop=Regular P
 seudo=Read Guess=Read
 ----------------------------------------------------------------------

 ---
 ScO
 ---
 Symbolic Z-matrix:
 Charge =  0 Multiplicity = 2

                         Standard orientation:
 ---------------------------------------------------------------------
 Center     Atomic      Atomic             Coordinates (Angstroms)
 Number     Number       Type             X           Y           Z
 ---------------------------------------------------------------------
      1         21           0        0.000000    0.000000    0.496552
      2          8           0        0.000000    0.000000   -1.303448
 ---------------------------------------------------------------------

 SCF Done:  E(ROHF) =  -61.8176196952     A.U. after   16 cycles
 E2 =    -0.7131532353D+00 EUMP2 =    -0.62530772930576D+02
 CCSD(T)
 CCSD(T)= -0.62558980255D+02

 The electronic state is 2-SG.
 Alpha  occ. eigenvalues --   -2.69034  -1.67541  -1.66404  -1.66404  -1.11135
 Alpha  occ. eigenvalues --   -0.41561  -0.38681  -0.38681  -0.26340
 Alpha virt. eigenvalues --   -0.00436  -0.00436   0.01073   0.01952   0.02659
 Alpha virt. eigenvalues --    0.02659   0.02790   0.02790   0.03224   0.03224
 Alpha virt. eigenvalues --    0.03602   0.04088   0.06081   0.06081   0.09127

 Mulliken charges and spin densities:
               1          2
     1  Sc   1.270264   0.987505
     2  O   -1.270264   0.012495
 Sum of Mulliken charges =  -0.00000   1.00000

 Dipole moment (field-independent basis, Debye):
    X=              0.0000    Y=              0.0000    Z=              5.7574  Tot=              5.7574
 Quadrupole moment (field-independent basis, Debye-Ang):
   XX=            -21.9775   YY=            -21.9775   ZZ=            -33.4108
   XY=              0.0000   XZ=              0.0000   YZ=              0.0000

 \\#P ROCCSD(T)=(maxcyc=150, Full, SaveAmplitudes, ReadAmplitudes)/Gen
 176197\PMP2-0=-62.5307729\CCSD=-62.5137398\CCSD(T)=-62.5589803\RMSD=1.
 Normal termination of Gaussian 16 at Wed Feb 21 06:25:58 2018.
