 Gaussian 16, Revision A.03,
 Gaussian 16:  ES64L-G16RevA.03 25-Dec-2016

 ----------------------------------------------------------------------
 #P ROCCSD(T)=(MaxCyc=150, Full)/Gen SCF=(maxcycle=400) Pseudo=Read Int
 egral(NoXCTest) Pop=Regular MaxDisk=500GB Guess=Read IOp(5/15=2)
 ----------------------------------------------------------------------

 ---
 CuH
 ---
 Symbolic Z-matrix:
 Charge =  0 Multiplicity = 1

                         Standard orientation:
 ---------------------------------------------------------------------
 Center     Atomic      Atomic             Coordinates (Angstroms)
 Number     Number       Type             X           Y           Z
 ---------------------------------------------------------------------
      1         29           0        0.000000    0.000000    0.046667
      2          1           0        0.000000    0.000000   -1.353333
 ---------------------------------------------------------------------

 SCF Done:  E(ROHF) =  -196.526642342     A.U. after   11 cycles
 E2 =    -0.1108239592D+01 EUMP2 =    -0.19763488193381D+03
 CCSD(T)
 CCSD(T)= -0.19755080780D+03

 The electronic state is 1-SG.
 Alpha  occ. eigenvalues --   -5.25113  -3.37174  -3.36579  -3.36579  -0.51711
 Alpha  occ. eigenvalues --   -0.50393  -0.50393  -0.49968  -0.49968  -0.34049
 Alpha virt. eigenvalues --    0.00308   0.02953   0.02953   0.03509   0.05603
 Alpha virt. eigenvalues --    0.10039   0.10357   0.10357   0.17232   0.19533
 Alpha virt. eigenvalues --    0.19533   0.20449   0.20449   0.21679   0.25918

 Mulliken charges and spin densities:
               1          2
     1  Cu   0.355358  -0.000000
     2  H   -0.355358  -0.000000
 Sum of Mulliken charges =  -0.00000  -0.00000

 Dipole moment (field-independent basis, Debye):
    X=              0.0000    Y=              0.0000    Z=              3.7890  Tot=              3.7890
 Quadrupole moment (field-independent basis, Debye-Ang):
   XX=            -13.6925   YY=            -13.6925   ZZ=            -15.4592
   XY=              0.0000   XZ=              0.0000   YZ=              0.0000

 P ROCCSD(T)=(MaxCyc=150, Full)/Gen SCF=(maxcycle=400) Pseudo=Read Inte
 2-0=-197.6348819\MP4SDQ=-197.5925697\CCSD=-197.5129596\CCSD(T)=-197.55
 Normal termination of Gaussian 16 at Wed Apr  4 23:00:37 2018.
