 Gaussian 16, Revision A.03,
 Gaussian 16:  ES64L-G16RevA.03 25-Dec-2016

 ----------------------------------------------------------------------
 #P ROCCSD(T)=(MaxCyc=150, Full)/Gen SCF=(maxcycle=400) Pseudo=Read Int
 egral(NoXCTest) Pop=Regular MaxDisk=500GB Guess=Read IOp(5/15=2)
 ----------------------------------------------------------------------

 ---
 CuH
 ---
 Symbolic Z-matrix:
 Charge =  0 Multiplicity = 1

                         Standard orientation:
 ---------------------------------------------------------------------
 Center     Atomic      Atomic             Coordinates (Angstroms)
 Number     Number       Type             X           Y           Z
 ---------------------------------------------------------------------
      1         29           0        0.000000    0.000000    0.046667
      2          1           0        0.000000    0.000000   -1.353333
 ---------------------------------------------------------------------

 SCF Done:  E(ROHF) =  -196.529256625     A.U. after    7 cycles
 E2 =    -0.1185188593D+01 EUMP2 =    -0.19771444521791D+03
 CCSD(T)
 CCSD(T)= -0.19762658233D+03

 The electronic state is 1-SG.
 Alpha  occ. eigenvalues --   -5.25104  -3.37154  -3.36565  -3.36565  -0.51710
 Alpha  occ. eigenvalues --   -0.50399  -0.50399  -0.49978  -0.49978  -0.34054
 Alpha virt. eigenvalues --    0.00208   0.02575   0.02575   0.02902   0.04434
 Alpha virt. eigenvalues --    0.07777   0.08630   0.08630   0.12075   0.12075
 Alpha virt. eigenvalues --    0.12092   0.12525   0.12525   0.15290   0.18659

 Mulliken charges and spin densities:
               1          2
     1  Cu   0.298642   0.000000
     2  H   -0.298642   0.000000
 Sum of Mulliken charges =  -0.00000   0.00000

 Dipole moment (field-independent basis, Debye):
    X=              0.0000    Y=              0.0000    Z=              3.7773  Tot=              3.7773
 Quadrupole moment (field-independent basis, Debye-Ang):
   XX=            -13.6805   YY=            -13.6805   ZZ=            -15.4774
   XY=              0.0000   XZ=              0.0000   YZ=              0.0000

 P ROCCSD(T)=(MaxCyc=150, Full)/Gen SCF=(maxcycle=400) Pseudo=Read Inte
 2-0=-197.7144452\MP4SDQ=-197.6641361\CCSD=-197.5858998\CCSD(T)=-197.62
 Normal termination of Gaussian 16 at Thu Apr  5 02:39:37 2018.
