 Gaussian 16, Revision A.03,
 Gaussian 16:  ES64L-G16RevA.03 25-Dec-2016

 ----------------------------------------------------------------------
 #P ROCCSD(T)=(MaxCyc=150, Full)/Gen SCF=(maxcycle=400) Pseudo=Read Int
 egral(NoXCTest) Pop=Regular MaxDisk=500GB Guess=Read IOp(5/15=2)
 ----------------------------------------------------------------------

 ---
 CuH
 ---
 Symbolic Z-matrix:
 Charge =  0 Multiplicity = 1

                         Standard orientation:
 ---------------------------------------------------------------------
 Center     Atomic      Atomic             Coordinates (Angstroms)
 Number     Number       Type             X           Y           Z
 ---------------------------------------------------------------------
      1         29           0        0.000000    0.000000    0.046667
      2          1           0        0.000000    0.000000   -1.353333
 ---------------------------------------------------------------------

 SCF Done:  E(ROHF) =  -196.529414710     A.U. after    9 cycles
 E2 =    -0.1160247426D+01 EUMP2 =    -0.19768966213595D+03
 CCSD(T)
 CCSD(T)= -0.19760405551D+03

 The electronic state is 1-SG.
 Alpha  occ. eigenvalues --   -5.25098  -3.37149  -3.36560  -3.36560  -0.51710
 Alpha  occ. eigenvalues --   -0.50397  -0.50397  -0.49977  -0.49977  -0.34053
 Alpha virt. eigenvalues --    0.00287   0.02661   0.02661   0.03176   0.05220
 Alpha virt. eigenvalues --    0.08996   0.08996   0.09008   0.13465   0.13487
 Alpha virt. eigenvalues --    0.13487   0.13949   0.13949   0.20152   0.22360

 Mulliken charges and spin densities:
               1          2
     1  Cu   0.336805   0.000000
     2  H   -0.336805   0.000000
 Sum of Mulliken charges =  -0.00000   0.00000

 Dipole moment (field-independent basis, Debye):
    X=              0.0000    Y=              0.0000    Z=              3.7790  Tot=              3.7790
 Quadrupole moment (field-independent basis, Debye-Ang):
   XX=            -13.6818   YY=            -13.6818   ZZ=            -15.4752
   XY=              0.0000   XZ=              0.0000   YZ=              0.0000

 P ROCCSD(T)=(MaxCyc=150, Full)/Gen SCF=(maxcycle=400) Pseudo=Read Inte
 2-0=-197.6896621\MP4SDQ=-197.6428973\CCSD=-197.5641368\CCSD(T)=-197.60
 Normal termination of Gaussian 16 at Wed Apr  4 23:55:37 2018.
