 Gaussian 16, Revision A.03,
 Gaussian 16:  ES64L-G16RevA.03 25-Dec-2016

 ----------------------------------------------------------------------
 #P ROCCSD(T)=(maxcyc=150, Full, SaveAmplitudes, ReadAmplitudes)/Gen 5d
  7f SCF=(maxcycles=300) Integral(NoXCTest) MaxDisk=500GB Pop=Regular P
 seudo=Read Guess=Read
 ----------------------------------------------------------------------

 ---
 MnO
 ---
 Symbolic Z-matrix:
 Charge =  0 Multiplicity = 6

                         Standard orientation:
 ---------------------------------------------------------------------
 Center     Atomic      Atomic             Coordinates (Angstroms)
 Number     Number       Type             X           Y           Z
 ---------------------------------------------------------------------
      1         25           0        0.000000    0.000000    0.315152
      2          8           0        0.000000    0.000000   -0.984848
 ---------------------------------------------------------------------

 SCF Done:  E(ROHF) =  -118.979673254     A.U. after   22 cycles
 E2 =    -0.9730241526D+00 EUMP2 =    -0.11995269740666D+03
 CCSD(T)
 CCSD(T)= -0.11995713422D+03

 The electronic state is 6-SG.
 Alpha  occ. eigenvalues --   -4.21530  -2.76708  -2.76636  -2.76636  -1.26706
 Alpha  occ. eigenvalues --   -0.73449  -0.73449  -0.61393  -0.61393  -0.60143
 Alpha  occ. eigenvalues --   -0.40695  -0.40695  -0.30057
 Alpha virt. eigenvalues --    0.01812   0.02214   0.02214   0.02926   0.05366
 Alpha virt. eigenvalues --    0.05973   0.05973   0.05978   0.05978   0.07531
 Alpha virt. eigenvalues --    0.07531   0.07787   0.11230   0.14807   0.18086

 Mulliken charges and spin densities:
               1          2
     1  Mn   1.053399   4.747601
     2  O   -1.053399   0.252399
 Sum of Mulliken charges =  -0.00000   5.00000

 Dipole moment (field-independent basis, Debye):
    X=              0.0000    Y=              0.0000    Z=              2.7069  Tot=              2.7069
 Quadrupole moment (field-independent basis, Debye-Ang):
   XX=            -19.8853   YY=            -19.8853   ZZ=            -22.9496
   XY=              0.0000   XZ=              0.0000   YZ=              0.0000

 \\#P ROCCSD(T)=(maxcyc=150, Full, SaveAmplitudes, ReadAmplitudes)/Gen
 8.9796733\PMP2-0=-119.9526974\CCSD=-119.9157738\CCSD(T)=-119.9571342\R
 Normal termination of Gaussian 16 at Wed Mar 14 04:34:57 2018.
