 Gaussian 16, Revision A.03,
 Gaussian 16:  ES64L-G16RevA.03 25-Dec-2016

 ----------------------------------------------------------------------
 #P ROCCSD(T)=(maxcyc=150, Full, SaveAmplitudes, ReadAmplitudes)/Gen 5d
  7f SCF=(maxcycles=300) Integral(NoXCTest) MaxDisk=500GB Pop=Regular P
 seudo=Read Guess=Read IOp(5/15=2)
 ----------------------------------------------------------------------

 ---
 CrO
 ---
 Symbolic Z-matrix:
 Charge =  0 Multiplicity = 5

                         Standard orientation:
 ---------------------------------------------------------------------
 Center     Atomic      Atomic             Coordinates (Angstroms)
 Number     Number       Type             X           Y           Z
 ---------------------------------------------------------------------
      1         24           0        0.000000    0.000000    0.375000
      2          8           0        0.000000    0.000000   -1.125000
 ---------------------------------------------------------------------

 SCF Done:  E(ROHF) =  -101.848634797     A.U. after   26 cycles
 E2 =    -0.8750645779D+00 EUMP2 =    -0.10272369937536D+03
 CCSD(T)
 CCSD(T)= -0.10274648089D+03

 Unable to determine electronic state:  an orbital has unidentified symmetry.
 Alpha  occ. eigenvalues --   -3.76718  -2.52171  -2.48155  -2.45428  -1.21385
 Alpha  occ. eigenvalues --   -0.63417  -0.57504  -0.55982  -0.50550  -0.48156
 Alpha  occ. eigenvalues --   -0.39710  -0.30108
 Alpha virt. eigenvalues --    0.00750   0.01190   0.01923   0.03182   0.04624
 Alpha virt. eigenvalues --    0.04917   0.06343   0.07614   0.07623   0.08014
 Alpha virt. eigenvalues --    0.08442   0.08572   0.12841   0.14412   0.16712

 Mulliken charges and spin densities:
               1          2
     1  Cr   1.018313   3.831069
     2  O   -1.018313   0.168931
 Sum of Mulliken charges =  -0.00000   4.00000

 Dipole moment (field-independent basis, Debye):
    X=              0.0000    Y=              0.0000    Z=              4.4404  Tot=              4.4404
 Quadrupole moment (field-independent basis, Debye-Ang):
   XX=            -20.8404   YY=            -19.7315   ZZ=            -24.4478
   XY=              0.0000   XZ=              0.0000   YZ=              0.0000

 \\#P ROCCSD(T)=(maxcyc=150, Full, SaveAmplitudes, ReadAmplitudes)/Gen
 SD=-102.6989807\CCSD(T)=-102.7464809\RMSD=5.885e-09\PG=C*V [C*(O1Cr1)]
 Normal termination of Gaussian 16 at Sat Mar 10 05:48:02 2018.
