 Gaussian 16, Revision A.03,
 Gaussian 16:  ES64L-G16RevA.03 25-Dec-2016

 ----------------------------------------------------------------------
 #P ROCCSD(T)=(maxcyc=150, Full, SaveAmplitudes, ReadAmplitudes)/Gen 5d
  7f SCF=(maxcycles=300) Integral(NoXCTest) MaxDisk=500GB Pop=Regular P
 seudo=Read Guess=Read IOp(5/15=2)
 ----------------------------------------------------------------------

 ---
 CrH
 ---
 Symbolic Z-matrix:
 Charge =  0 Multiplicity = 6

                         Standard orientation:
 ---------------------------------------------------------------------
 Center     Atomic      Atomic             Coordinates (Angstroms)
 Number     Number       Type             X           Y           Z
 ---------------------------------------------------------------------
      1         24           0        0.000000    0.000000    0.068000
      2          1           0        0.000000    0.000000   -1.632000
 ---------------------------------------------------------------------

 SCF Done:  E(ROHF) =  -86.3755639357     A.U. after   28 cycles
 E2 =    -0.5211907121D+00 EUMP2 =    -0.86896754647846D+02
 CCSD(T)
 CCSD(T)= -0.86937012836D+02

 The electronic state is 6-SG.
 Alpha  occ. eigenvalues --   -3.85310  -2.57215  -2.57215  -2.52681  -0.50116
 Alpha  occ. eigenvalues --   -0.50116  -0.47261  -0.47261  -0.41629  -0.26937
 Alpha virt. eigenvalues --    0.01256   0.01256   0.02263   0.02573   0.05396
 Alpha virt. eigenvalues --    0.05396   0.05824   0.07670   0.07670   0.08067
 Alpha virt. eigenvalues --    0.08067   0.08899   0.10344   0.17544   0.20593

 Mulliken charges and spin densities:
               1          2
     1  Cr   0.454746   4.978253
     2  H   -0.454746   0.021747
 Sum of Mulliken charges =  -0.00000   5.00000

 Dipole moment (field-independent basis, Debye):
    X=              0.0000    Y=              0.0000    Z=              2.0372  Tot=              2.0372
 Quadrupole moment (field-independent basis, Debye-Ang):
   XX=            -17.2173   YY=            -17.2173   ZZ=            -24.1990
   XY=              0.0000   XZ=              0.0000   YZ=              0.0000

 \\#P ROCCSD(T)=(maxcyc=150, Full, SaveAmplitudes, ReadAmplitudes)/Gen
 44\CCSD=-86.92048\CCSD(T)=-86.9370128\RMSD=5.195e-09\PG=C*V [C*(H1Cr1)
 Normal termination of Gaussian 16 at Mon Feb 26 10:33:27 2018.
