 Gaussian 16, Revision A.03,
 Gaussian 16:  ES64L-G16RevA.03 25-Dec-2016

 ----------------------------------------------------------------------
 #P ROCCSD(T)=(maxcyc=150, Full, SaveAmplitudes, ReadAmplitudes)/Gen 5d
  7f SCF=(maxcycles=300) Integral(NoXCTest) MaxDisk=500GB Pop=Regular P
 seudo=Read Guess=Read IOp(5/15=2)
 ----------------------------------------------------------------------

 ---
 CrO
 ---
 Symbolic Z-matrix:
 Charge =  0 Multiplicity = 5

                         Standard orientation:
 ---------------------------------------------------------------------
 Center     Atomic      Atomic             Coordinates (Angstroms)
 Number     Number       Type             X           Y           Z
 ---------------------------------------------------------------------
      1         24           0        0.000000    0.000000    0.350000
      2          8           0        0.000000    0.000000   -1.050000
 ---------------------------------------------------------------------

 SCF Done:  E(ROHF) =  -101.966457142     A.U. after   27 cycles
 E2 =    -0.8825142050D+00 EUMP2 =    -0.10284897134721D+03
 CCSD(T)
 CCSD(T)= -0.10286639739D+03

 Unable to determine electronic state:  an orbital has unidentified symmetry.
 Alpha  occ. eigenvalues --   -3.76215  -2.47149  -2.42901  -2.42395  -1.23529
 Alpha  occ. eigenvalues --   -0.65377  -0.56962  -0.54050  -0.53152  -0.52122
 Alpha  occ. eigenvalues --   -0.38707  -0.28714
 Alpha virt. eigenvalues --    0.01118   0.01825   0.02182   0.03082   0.04983
 Alpha virt. eigenvalues --    0.05907   0.06795   0.07674   0.07680   0.07980
 Alpha virt. eigenvalues --    0.08514   0.09164   0.12551   0.15991   0.17932

 Mulliken charges and spin densities:
               1          2
     1  Cr   0.971202   3.801909
     2  O   -0.971202   0.198091
 Sum of Mulliken charges =  -0.00000   4.00000

 Dipole moment (field-independent basis, Debye):
    X=              0.0000    Y=              0.0000    Z=              3.2040  Tot=              3.2040
 Quadrupole moment (field-independent basis, Debye-Ang):
   XX=            -20.8879   YY=            -19.6346   ZZ=            -24.0247
   XY=              0.0000   XZ=              0.0000   YZ=              0.0000

 \\#P ROCCSD(T)=(maxcyc=150, Full, SaveAmplitudes, ReadAmplitudes)/Gen
 SD=-102.8213157\CCSD(T)=-102.8663974\RMSD=5.913e-09\PG=C*V [C*(O1Cr1)]
 Normal termination of Gaussian 16 at Mon Mar 12 14:32:56 2018.
