 Gaussian 16, Revision A.03,
 Gaussian 16:  ES64L-G16RevA.03 25-Dec-2016

 ----------------------------------------------------------------------
 #P ROCCSD(T)=(maxcyc=150, Full, ReadAmplitudes)/Gen 5d 7f SCF=(maxcycl
 es=300) Integral(NoXCTest) MaxDisk=500GB Pop=Regular Pseudo=Read Guess
 =Read
 ----------------------------------------------------------------------

 ---
 CrH
 ---
 Symbolic Z-matrix:
 Charge =  0 Multiplicity = 6

                         Standard orientation:
 ---------------------------------------------------------------------
 Center     Atomic      Atomic             Coordinates (Angstroms)
 Number     Number       Type             X           Y           Z
 ---------------------------------------------------------------------
      1         24           0        0.000000    0.000000    0.064000
      2          1           0        0.000000    0.000000   -1.536000
 ---------------------------------------------------------------------

 SCF Done:  E(ROHF) =  -86.8790604213     A.U. after   22 cycles
 E2 =    -0.5798508798D+00 EUMP2 =    -0.87458911301124D+02
 CCSD(T)
 CCSD(T)= -0.87501103720D+02

 The electronic state is 6-SG.
 Alpha  occ. eigenvalues --   -3.73393  -2.43309  -2.43309  -2.38930  -0.53500
 Alpha  occ. eigenvalues --   -0.53500  -0.50341  -0.50341  -0.41717  -0.25845
 Alpha virt. eigenvalues --    0.01333   0.01333   0.01859   0.02198   0.04403
 Alpha virt. eigenvalues --    0.04919   0.04919   0.04968   0.04968   0.05246
 Alpha virt. eigenvalues --    0.05246   0.06321   0.08508   0.11657   0.15111

 Mulliken charges and spin densities:
               1          2
     1  Cr   0.374158   4.974291
     2  H   -0.374158   0.025709
 Sum of Mulliken charges =  -0.00000   5.00000

 Dipole moment (field-independent basis, Debye):
    X=              0.0000    Y=              0.0000    Z=              2.0292  Tot=              2.0292
 Quadrupole moment (field-independent basis, Debye-Ang):
   XX=            -16.8641   YY=            -16.8641   ZZ=            -23.0807
   XY=              0.0000   XZ=              0.0000   YZ=              0.0000

 \\#P ROCCSD(T)=(maxcyc=150, Full, ReadAmplitudes)/Gen 5d 7f SCF=(maxcy
 7.4589113\CCSD=-87.482241\CCSD(T)=-87.5011037\RMSD=7.613e-09\PG=C*V [C
 Normal termination of Gaussian 16 at Mon Feb 26 10:22:15 2018.
