 Gaussian 16, Revision A.03,
 Gaussian 16:  ES64L-G16RevA.03 25-Dec-2016

 ----------------------------------------------------------------------
 #P ROCCSD(T)=(maxcyc=150, Full)/Gen 5d 7f SCF=(maxcycles=300, NoVarAcc
 , VShift=300) MaxDisk=100GB Pop=Regular Pseudo=Read Guess=Read
 ----------------------------------------------------------------------

 --
 Sc
 --
 Symbolic Z-matrix:
 Charge =  0 Multiplicity = 2

                         Standard orientation:
 ---------------------------------------------------------------------
 Center     Atomic      Atomic             Coordinates (Angstroms)
 Number     Number       Type             X           Y           Z
 ---------------------------------------------------------------------
      1         21           0        0.000000    0.000000    0.000000
 ---------------------------------------------------------------------

 SCF Done:  E(ROHF) =  -46.1453253163     A.U. after   21 cycles
 E2 =    -0.3942909824D+00 EUMP2 =    -0.46539616298723D+02
 CCSD(T)
 CCSD(T)= -0.46573187090D+02

 Unable to determine electronic state:  an orbital has unidentified symmetry.
 Alpha  occ. eigenvalues --   -2.63134  -1.62542  -1.62542  -1.58675  -0.34725
 Alpha  occ. eigenvalues --   -0.21549
 Alpha virt. eigenvalues --    0.01181   0.01271   0.01271   0.02001   0.02626
 Alpha virt. eigenvalues --    0.02629   0.02629   0.02635   0.02650   0.04266
 Alpha virt. eigenvalues --    0.04387   0.04387   0.07418   0.07495   0.07495

 Mulliken charges and spin densities:
               1          2
     1  Sc  -0.000000   1.000000
 Sum of Mulliken charges =  -0.00000   1.00000

 Dipole moment (field-independent basis, Debye):
    X=              0.0000    Y=              0.0000    Z=              0.0000  Tot=              0.0000
 Quadrupole moment (field-independent basis, Debye-Ang):
   XX=            -23.3069   YY=            -23.3069   ZZ=            -23.0120
   XY=              0.0000   XZ=              0.0000   YZ=             -0.0000

 1\1\GINC-C416-121\SP\ROCCSD(T)-Full\Gen\Sc1(2)\AANNABE\12-Mar-2018\0\\
 #P ROCCSD(T)=(maxcyc=150, Full)/Gen 5d 7f SCF=(maxcycles=300, NoVarAcc
 , VShift=300) MaxDisk=100GB Pop=Regular Pseudo=Read Guess=Read\\Sc\\0,
 2\Sc,0,0.,0.,0.\\Version=ES64L-G16RevA.03\HF=-46.1453253\MP2=-46.53961
 63\MP3=-46.5576133\PUHF=-46.1453253\PMP2-0=-46.5396163\MP4SDQ=-46.5569
 439\CCSD=-46.5571997\CCSD(T)=-46.5731871\RMSD=4.614e-09\PG=OH [O(Sc1)]
 \\@

 Normal termination of Gaussian 16 at Mon Mar 12 11:54:49 2018.
