 Gaussian 16, Revision A.03,
 Gaussian 16:  ES64L-G16RevA.03 25-Dec-2016

 ----------------------------------------------------------------------
 #P ROCCSD(T)=(MaxCyc=150, Full)/Gen SCF=(maxcycle=400) Pseudo=Read Int
 egral(NoXCTest) Pop=Regular MaxDisk=500GB Guess=Read IOp(5/15=2)
 ----------------------------------------------------------------------

 ---
 ZnO
 ---
 Symbolic Z-matrix:
 Charge =  0 Multiplicity = 1

                         Standard orientation:
 ---------------------------------------------------------------------
 Center     Atomic      Atomic             Coordinates (Angstroms)
 Number     Number       Type             X           Y           Z
 ---------------------------------------------------------------------
      1         30           0        0.000000    0.000000    0.294737
      2          8           0        0.000000    0.000000   -1.105263
 ---------------------------------------------------------------------

 SCF Done:  E(ROHF) =  -241.567396276     A.U. after    1 cycles
 E2 =    -0.1349110627D+01 EUMP2 =    -0.24291650690265D+03
 CCSD(T)
 CCSD(T)= -0.24284522096D+03

 The electronic state is 1-SG.
 Alpha  occ. eigenvalues --   -5.93691  -4.01782  -4.00133  -4.00133  -1.24541
 Alpha  occ. eigenvalues --   -0.85613  -0.85613  -0.82542  -0.82542  -0.79191
 Alpha  occ. eigenvalues --   -0.41059  -0.41059  -0.39477
 Alpha virt. eigenvalues --   -0.03568   0.02984   0.02984   0.03113   0.04560
 Alpha virt. eigenvalues --    0.09976   0.09976   0.13601   0.18337   0.21735
 Alpha virt. eigenvalues --    0.23296   0.23296   0.25153   0.25153   0.30431

 Mulliken charges and spin densities:
               1          2
     1  Zn   1.290947   0.000000
     2  O   -1.290947   0.000000
 Sum of Mulliken charges =  -0.00000   0.00000

 Dipole moment (field-independent basis, Debye):
    X=              0.0000    Y=              0.0000    Z=              6.4947  Tot=              6.4947
 Quadrupole moment (field-independent basis, Debye-Ang):
   XX=            -17.8378   YY=            -17.8378   ZZ=            -20.0974
   XY=              0.0000   XZ=              0.0000   YZ=              0.0000

 P ROCCSD(T)=(MaxCyc=150, Full)/Gen SCF=(maxcycle=400) Pseudo=Read Inte
 -0=-242.9165069\MP4SDQ=-242.8482416\CCSD=-242.7969783\CCSD(T)=-242.845
 Normal termination of Gaussian 16 at Wed Mar 28 00:18:37 2018.
