 Gaussian 16, Revision A.03,
 Gaussian 16:  ES64L-G16RevA.03 25-Dec-2016

 ----------------------------------------------------------------------
 #P ROCCSD(T)=(MaxCyc=150, Full)/Gen SCF=(maxcycle=400) Pseudo=Read Int
 egral(NoXCTest) Pop=Regular MaxDisk=500GB Guess=Read IOp(5/15=2)
 ----------------------------------------------------------------------

 ---
 ZnO
 ---
 Symbolic Z-matrix:
 Charge =  0 Multiplicity = 1

                         Standard orientation:
 ---------------------------------------------------------------------
 Center     Atomic      Atomic             Coordinates (Angstroms)
 Number     Number       Type             X           Y           Z
 ---------------------------------------------------------------------
      1         30           0        0.000000    0.000000    0.294737
      2          8           0        0.000000    0.000000   -1.105263
 ---------------------------------------------------------------------

 SCF Done:  E(ROHF) =  -241.571275228     A.U. after   11 cycles
 E2 =    -0.1417721050D+01 EUMP2 =    -0.24298899627745D+03
 CCSD(T)
 CCSD(T)= -0.24291530424D+03

 The electronic state is 1-SG.
 Alpha  occ. eigenvalues --   -5.93676  -4.01752  -4.00115  -4.00115  -1.24475
 Alpha  occ. eigenvalues --   -0.85603  -0.85603  -0.82534  -0.82534  -0.79170
 Alpha  occ. eigenvalues --   -0.41066  -0.41066  -0.39460
 Alpha virt. eigenvalues --   -0.03558   0.02686   0.02686   0.02857   0.04126
 Alpha virt. eigenvalues --    0.08664   0.08664   0.12330   0.16789   0.17929
 Alpha virt. eigenvalues --    0.18162   0.18162   0.20098   0.20098   0.23091

 Mulliken charges and spin densities:
               1          2
     1  Zn   1.076783   0.000000
     2  O   -1.076783   0.000000
 Sum of Mulliken charges =  -0.00000   0.00000

 Dipole moment (field-independent basis, Debye):
    X=              0.0000    Y=              0.0000    Z=              6.4813  Tot=              6.4813
 Quadrupole moment (field-independent basis, Debye-Ang):
   XX=            -17.8267   YY=            -17.8267   ZZ=            -20.0902
   XY=              0.0000   XZ=              0.0000   YZ=              0.0000

 P ROCCSD(T)=(MaxCyc=150, Full)/Gen SCF=(maxcycle=400) Pseudo=Read Inte
 2-0=-242.9889963\MP4SDQ=-242.9146797\CCSD=-242.8644676\CCSD(T)=-242.91
 Normal termination of Gaussian 16 at Wed Mar 28 02:37:50 2018.
