 Gaussian 16, Revision A.03,
 Gaussian 16:  ES64L-G16RevA.03 25-Dec-2016

 ----------------------------------------------------------------------
 #P ROCCSD(T)=(MaxCyc=150, Full)/Gen SCF=(maxcycle=400, vshift=200) Int
 egral(DKHSO, NoXCTest) Pop=Regular MaxDisk=500GB Guess=Read IOp(5/15=2
 )
 ----------------------------------------------------------------------

 ---
 CoH
 ---
 Symbolic Z-matrix:
 Charge =  0 Multiplicity = 3

                         Standard orientation:
 ---------------------------------------------------------------------
 Center     Atomic      Atomic             Coordinates (Angstroms)
 Number     Number       Type             X           Y           Z
 ---------------------------------------------------------------------
      1         27           0        0.000000    0.000000    0.064286
      2          1           0        0.000000    0.000000   -1.735714
 ---------------------------------------------------------------------

 SCF Done:  E(ROHF) =  -1392.35879691     A.U. after   33 cycles
 E2 =    -0.1317389720D+01 EUMP2 =    -0.13936761866259D+04
 CCSD(T)
 CCSD(T)= -0.13936373435D+04

 Unable to determine electronic state:  partially filled degenerate orbitals.
 Alpha  occ. eigenvalues -- -285.59192 -35.28132 -30.05260 -30.05260 -30.05021
 Alpha  occ. eigenvalues --   -4.49943  -2.93846  -2.93846  -2.93733  -0.49631
 Alpha  occ. eigenvalues --   -0.49010  -0.44866  -0.44424  -0.44424  -0.32065
 Alpha virt. eigenvalues --   -0.00587   0.02329   0.02329   0.03207   0.04095
 Alpha virt. eigenvalues --    0.06977   0.07260   0.07274   0.07552   0.07552
 Alpha virt. eigenvalues --    0.08489   0.08489   0.10296   0.17224   0.19414

 Mulliken charges and spin densities:
               1          2
     1  Co   0.363371   1.997032
     2  H   -0.363371   0.002968
 Sum of Mulliken charges =  -0.00000   2.00000

 Dipole moment (field-independent basis, Debye):
    X=              0.0000    Y=              0.0000    Z=              4.9250  Tot=              4.9250
 Quadrupole moment (field-independent basis, Debye-Ang):
   XX=            -14.3046   YY=            -14.3046   ZZ=            -19.8337
   XY=              0.0000   XZ=              0.0000   YZ=              0.0000

 \\#P ROCCSD(T)=(MaxCyc=150, Full)/Gen SCF=(maxcycle=400, vshift=200) I
 PMP2-0=-1393.6761866\MP4SDQ=-1393.6322791\CCSD=-1393.604661\CCSD(T)=-1
 Normal termination of Gaussian 16 at Sat Apr 21 23:02:28 2018.
