 Gaussian 16, Revision A.03,
 Gaussian 16:  ES64L-G16RevA.03 25-Dec-2016

 ----------------------------------------------------------------------
 #P ROCCSD(T)=(maxcyc=150, Full)/Gen 5d 7f SCF=(maxcycles=300, NoVarAcc
 , VShift=300) MaxDisk=100GB Pop=Regular Pseudo=Read Guess=Read
 ----------------------------------------------------------------------

 --
 Ti
 --
 Symbolic Z-matrix:
 Charge =  0 Multiplicity = 3

                         Standard orientation:
 ---------------------------------------------------------------------
 Center     Atomic      Atomic             Coordinates (Angstroms)
 Number     Number       Type             X           Y           Z
 ---------------------------------------------------------------------
      1         22           0        0.000000    0.000000    0.000000
 ---------------------------------------------------------------------

 SCF Done:  E(ROHF) =  -57.6097306644     A.U. after    1 cycles
 E2 =    -0.4379719533D+00 EUMP2 =    -0.58047702617727D+02
 CCSD(T)
 CCSD(T)= -0.58081899224D+02

 Unable to determine electronic state:  an orbital has unidentified symmetry.
 Alpha  occ. eigenvalues --   -2.99598  -1.89394  -1.89394  -1.89394  -0.44053
 Alpha  occ. eigenvalues --   -0.44053  -0.22967
 Alpha virt. eigenvalues --    0.01352   0.01352   0.01352   0.02033   0.03479
 Alpha virt. eigenvalues --    0.03479   0.03479   0.03510   0.03510   0.04657
 Alpha virt. eigenvalues --    0.04657   0.04657   0.09454   0.09454   0.09454

 Mulliken charges and spin densities:
               1          2
     1  Ti  -0.000000   2.000000
 Sum of Mulliken charges =  -0.00000   2.00000

 Dipole moment (field-independent basis, Debye):
    X=             -0.0000    Y=              0.0000    Z=              0.0000  Tot=              0.0000
 Quadrupole moment (field-independent basis, Debye-Ang):
   XX=            -21.9805   YY=            -21.9805   ZZ=            -21.9805
   XY=              0.0000   XZ=             -0.0000   YZ=             -0.0000

 1\1\GINC-C424-032\SP\ROCCSD(T)-Full\Gen\Ti1(3)\AANNABE\13-Mar-2018\0\\
 #P ROCCSD(T)=(maxcyc=150, Full)/Gen 5d 7f SCF=(maxcycles=300, NoVarAcc
 , VShift=300) MaxDisk=100GB Pop=Regular Pseudo=Read Guess=Read\\Ti\\0,
 3\Ti,0,0.,0.,0.\\Version=ES64L-G16RevA.03\HF=-57.6097307\MP2=-58.04770
 26\MP3=-58.0652876\PUHF=-57.6097307\PMP2-0=-58.0477026\MP4SDQ=-58.0650
 247\CCSD=-58.0654222\CCSD(T)=-58.0818992\RMSD=3.589e-09\PG=OH [O(Ti1)]
 \\@

 Normal termination of Gaussian 16 at Tue Mar 13 13:26:35 2018.
