 Gaussian 16, Revision A.03,
 Gaussian 16:  ES64L-G16RevA.03 25-Dec-2016

 ----------------------------------------------------------------------
 #P ROCCSD(T)=(maxcyc=150, Full, SaveAmplitudes, ReadAmplitudes)/Gen 5d
  7f SCF=(maxcycles=300) Integral(NoXCTest) MaxDisk=500GB Pop=Regular P
 seudo=Read Guess=Read IOp(5/15=2)
 ----------------------------------------------------------------------

 ---
 MnO
 ---
 Symbolic Z-matrix:
 Charge =  0 Multiplicity = 6

                         Standard orientation:
 ---------------------------------------------------------------------
 Center     Atomic      Atomic             Coordinates (Angstroms)
 Number     Number       Type             X           Y           Z
 ---------------------------------------------------------------------
      1         25           0        0.000000    0.000000    0.412121
      2          8           0        0.000000    0.000000   -1.287879
 ---------------------------------------------------------------------

 SCF Done:  E(ROHF) =  -119.356708587     A.U. after   33 cycles
 E2 =    -0.9073991726D+00 EUMP2 =    -0.12026410775986D+03
 CCSD(T)
 CCSD(T)= -0.12029625924D+03

 The electronic state is 6-SG.
 Alpha  occ. eigenvalues --   -4.08975  -2.75250  -2.75250  -2.74759  -1.11892
 Alpha  occ. eigenvalues --   -0.64193  -0.64193  -0.63470  -0.63470  -0.59608
 Alpha  occ. eigenvalues --   -0.33999  -0.33706  -0.33706
 Alpha virt. eigenvalues --   -0.04825   0.01556   0.01556   0.01780   0.03846
 Alpha virt. eigenvalues --    0.06653   0.06653   0.08192   0.08438   0.08438
 Alpha virt. eigenvalues --    0.09605   0.09605   0.13107   0.14058   0.22829

 Mulliken charges and spin densities:
               1          2
     1  Mn   1.157854   4.901658
     2  O   -1.157854   0.098342
 Sum of Mulliken charges =  -0.00000   5.00000

 Dipole moment (field-independent basis, Debye):
    X=              0.0000    Y=              0.0000    Z=              9.2049  Tot=              9.2049
 Quadrupole moment (field-independent basis, Debye-Ang):
   XX=            -18.7815   YY=            -18.7815   ZZ=            -23.7250
   XY=              0.0000   XZ=              0.0000   YZ=              0.0000

 \\#P ROCCSD(T)=(maxcyc=150, Full, SaveAmplitudes, ReadAmplitudes)/Gen
 .2629663\CCSD=-120.2547871\CCSD(T)=-120.2962592\RMSD=7.877e-09\PG=C*V
 Normal termination of Gaussian 16 at Wed Mar 14 03:00:55 2018.
