 Gaussian 16, Revision A.03,
 Gaussian 16:  ES64L-G16RevA.03 25-Dec-2016

 ----------------------------------------------------------------------
 #P ROCCSD(T)=(maxcyc=150, Full, SaveAmplitudes, ReadAmplitudes)/Gen 5d
  7f SCF=(maxcycles=300) Integral(NoXCTest) MaxDisk=500GB Pop=Regular P
 seudo=Read Guess=Read
 ----------------------------------------------------------------------

 ---
 ScO
 ---
 Symbolic Z-matrix:
 Charge =  0 Multiplicity = 2

                         Standard orientation:
 ---------------------------------------------------------------------
 Center     Atomic      Atomic             Coordinates (Angstroms)
 Number     Number       Type             X           Y           Z
 ---------------------------------------------------------------------
      1         21           0        0.000000    0.000000    0.303448
      2          8           0        0.000000    0.000000   -0.796552
 ---------------------------------------------------------------------

 SCF Done:  E(ROHF) =  -61.3257022547     A.U. after   14 cycles
 E2 =    -0.6713554307D+00 EUMP2 =    -0.61997057685483D+02
 CCSD(T)
 CCSD(T)= -0.62026706597D+02

 The electronic state is 2-SG.
 Alpha  occ. eigenvalues --   -2.70167  -1.86761  -1.53979  -1.53979  -1.04044
 Alpha  occ. eigenvalues --   -0.69602  -0.69602  -0.47211  -0.16506
 Alpha virt. eigenvalues --    0.00907   0.00907   0.01361   0.02696   0.02830
 Alpha virt. eigenvalues --    0.02830   0.02843   0.02843   0.02959   0.04373
 Alpha virt. eigenvalues --    0.04373   0.06111   0.08130   0.08130   0.08390

 Mulliken charges and spin densities:
               1          2
     1  Sc   0.758743   1.050519
     2  O   -0.758743  -0.050519
 Sum of Mulliken charges =  -0.00000   1.00000

 Dipole moment (field-independent basis, Debye):
    X=              0.0000    Y=              0.0000    Z=             -2.4713  Tot=              2.4713
 Quadrupole moment (field-independent basis, Debye-Ang):
   XX=            -24.5126   YY=            -24.5126   ZZ=            -28.5908
   XY=              0.0000   XZ=              0.0000   YZ=              0.0000

 \\#P ROCCSD(T)=(maxcyc=150, Full, SaveAmplitudes, ReadAmplitudes)/Gen
 257023\PMP2-0=-61.9970577\CCSD=-62.0002673\CCSD(T)=-62.0267066\RMSD=2.
 Normal termination of Gaussian 16 at Tue Feb 20 20:58:09 2018.
