 Gaussian 16, Revision A.03,
 Gaussian 16:  ES64L-G16RevA.03 25-Dec-2016

 ----------------------------------------------------------------------
 #P ROCCSD(T)=(maxcyc=150, Full)/Gen 5d 7f SCF=(maxcycles=300, NoVarAcc
 , VShift=200) MaxDisk=100GB Pop=Regular Pseudo=Read Guess=Read
 ----------------------------------------------------------------------

 --
 Mn
 --
 Symbolic Z-matrix:
 Charge =  0 Multiplicity = 6

                         Standard orientation:
 ---------------------------------------------------------------------
 Center     Atomic      Atomic             Coordinates (Angstroms)
 Number     Number       Type             X           Y           Z
 ---------------------------------------------------------------------
      1         25           0        0.000000    0.000000    0.000000
 ---------------------------------------------------------------------

 SCF Done:  E(ROHF) =  -103.517029326     A.U. after   22 cycles
 E2 =    -0.6054594085D+00 EUMP2 =    -0.10412248873407D+03
 CCSD(T)
 CCSD(T)= -0.10414061068D+03

 The electronic state is 6-A1G.
 Alpha  occ. eigenvalues --   -4.23125  -2.78546  -2.78546  -2.78546  -0.62968
 Alpha  occ. eigenvalues --   -0.62968  -0.62968  -0.62968  -0.62968  -0.26790
 Alpha virt. eigenvalues --    0.01710   0.01710   0.01710   0.02125   0.05597
 Alpha virt. eigenvalues --    0.05597   0.05597   0.05597   0.05597   0.05616
 Alpha virt. eigenvalues --    0.05616   0.05616   0.10441   0.17433   0.17433

 Mulliken charges and spin densities:
               1          2
     1  Mn  -0.000000   5.000000
 Sum of Mulliken charges =  -0.00000   5.00000

 Dipole moment (field-independent basis, Debye):
    X=              0.0000    Y=              0.0000    Z=              0.0000  Tot=              0.0000
 Quadrupole moment (field-independent basis, Debye-Ang):
   XX=            -18.8666   YY=            -18.8666   ZZ=            -18.8666
   XY=             -0.0000   XZ=              0.0000   YZ=             -0.0000

 1\1\GINC-C442-122\SP\ROCCSD(T)-Full\Gen\Mn1(6)\AANNABE\12-Mar-2018\0\\
 #P ROCCSD(T)=(maxcyc=150, Full)/Gen 5d 7f SCF=(maxcycles=300, NoVarAcc
 , VShift=200) MaxDisk=100GB Pop=Regular Pseudo=Read Guess=Read\\Mn\\0,
 6\Mn,0,0.,0.,0.\\Version=ES64L-G16RevA.03\State=6-A1G\HF=-103.5170293\
 MP2=-104.1224887\MP3=-104.1195646\PUHF=-103.5170293\PMP2-0=-104.122488
 7\MP4SDQ=-104.121675\CCSD=-104.1219209\CCSD(T)=-104.1406107\RMSD=5.584
 e-09\PG=OH [O(Mn1)]\\@

 Normal termination of Gaussian 16 at Mon Mar 12 15:03:48 2018.
