 Gaussian 16, Revision A.03,
 Gaussian 16:  ES64L-G16RevA.03 25-Dec-2016

 ----------------------------------------------------------------------
 #P ROCCSD(T)=(maxcyc=150, Full)/Gen 5d 7f SCF=(maxcycles=300) Integral
 (NoXCTest) MaxDisk=500GB Pop=Regular Pseudo=Read IOp(5/15=2) Guess=Rea
 d
 ----------------------------------------------------------------------

 ---
 ScH
 ---
 Symbolic Z-matrix:
 Charge =  0 Multiplicity = 1

                         Standard orientation:
 ---------------------------------------------------------------------
 Center     Atomic      Atomic             Coordinates (Angstroms)
 Number     Number       Type             X           Y           Z
 ---------------------------------------------------------------------
      1         21           0        0.000000    0.000000    0.086364
      2          1           0        0.000000    0.000000   -1.813636
 ---------------------------------------------------------------------

 SCF Done:  E(ROHF) =  -46.7883809412     A.U. after    9 cycles
 E2 =    -0.4317085624D+00 EUMP2 =    -0.47220089503628D+02
 CCSD(T)
 CCSD(T)= -0.47262982059D+02

 The electronic state is 1-SG.
 Alpha  occ. eigenvalues --   -2.76547  -1.67015  -1.67015  -1.66860  -0.39363
 Alpha  occ. eigenvalues --   -0.23595
 Alpha virt. eigenvalues --    0.01015   0.01015   0.01382   0.01738   0.02582
 Alpha virt. eigenvalues --    0.02582   0.02666   0.02666   0.02710   0.03824
 Alpha virt. eigenvalues --    0.03902   0.03902   0.06587   0.06587   0.07045

 Mulliken charges and spin densities:
               1          2
     1  Sc   0.368754   0.000000
     2  H   -0.368754   0.000000
 Sum of Mulliken charges =  -0.00000   0.00000

 Dipole moment (field-independent basis, Debye):
    X=              0.0000    Y=              0.0000    Z=              1.7426  Tot=              1.7426
 Quadrupole moment (field-independent basis, Debye-Ang):
   XX=            -22.9854   YY=            -22.9854   ZZ=            -27.7500
   XY=              0.0000   XZ=              0.0000   YZ=              0.0000

 P ROCCSD(T)=(maxcyc=150, Full)/Gen 5d 7f SCF=(maxcycles=300) Integral(
 PMP2-0=-47.2200895\MP4SDQ=-47.2425762\CCSD=-47.2429102\CCSD(T)=-47.262
 Normal termination of Gaussian 16 at Wed Feb 14 08:05:08 2018.
