 Gaussian 16, Revision A.03,
 Gaussian 16:  ES64L-G16RevA.03 25-Dec-2016

 ----------------------------------------------------------------------
 #P ROCCSD(T)=(maxcyc=150, Full, SaveAmplitudes, ReadAmplitudes)/Gen 5d
  7f SCF=(maxcycles=300) Integral(NoXCTest) MaxDisk=500GB Pop=Regular P
 seudo=Read Guess=Read IOp(5/15=2)
 ----------------------------------------------------------------------

 ---
 TiO
 ---
 Symbolic Z-matrix:
 Charge =  0 Multiplicity = 3

                         Standard orientation:
 ---------------------------------------------------------------------
 Center     Atomic      Atomic             Coordinates (Angstroms)
 Number     Number       Type             X           Y           Z
 ---------------------------------------------------------------------
      1         22           0        0.000000    0.000000    0.373333
      2          8           0        0.000000    0.000000   -1.026667
 ---------------------------------------------------------------------

 SCF Done:  E(ROHF) =  -73.2236933860     A.U. after   23 cycles
 E2 =    -0.7381559923D+00 EUMP2 =    -0.73961849378370D+02
 CCSD(T)
 CCSD(T)= -0.73986799636D+02

 Unable to determine electronic state:  an orbital has unidentified symmetry.
 Alpha  occ. eigenvalues --   -2.95035  -1.92356  -1.85342  -1.85342  -1.15643
 Alpha  occ. eigenvalues --   -0.53718  -0.53718  -0.50526  -0.38871  -0.23252
 Alpha virt. eigenvalues --    0.01008   0.01008   0.02202   0.02531   0.04639
 Alpha virt. eigenvalues --    0.04639   0.04995   0.05112   0.05284   0.05817
 Alpha virt. eigenvalues --    0.05817   0.08114   0.11537   0.12878   0.14395

 Mulliken charges and spin densities:
               1          2
     1  Ti   0.798624   2.023325
     2  O   -0.798624  -0.023325
 Sum of Mulliken charges =  -0.00000   2.00000

 Dipole moment (field-independent basis, Debye):
    X=              0.0000    Y=              0.0000    Z=              1.9006  Tot=              1.9006
 Quadrupole moment (field-independent basis, Debye-Ang):
   XX=            -21.7669   YY=            -21.7669   ZZ=            -27.7595
   XY=              0.0000   XZ=              0.0000   YZ=              0.0000

 \\#P ROCCSD(T)=(maxcyc=150, Full, SaveAmplitudes, ReadAmplitudes)/Gen
 492152\CCSD(T)=-73.9867996\RMSD=2.363e-09\PG=C*V [C*(O1Ti1)]\\@
 Normal termination of Gaussian 16 at Fri Mar  9 15:17:49 2018.
