 Gaussian 16, Revision A.03,
 Gaussian 16:  ES64L-G16RevA.03 25-Dec-2016

 ----------------------------------------------------------------------
 #P ROCCSD(T)=(maxcyc=150, Full, SaveAmplitudes, ReadAmplitudes)/Gen 5d
  7f SCF=(maxcycles=300) Integral(NoXCTest) MaxDisk=500GB Pop=Regular P
 seudo=Read Guess=Read
 ----------------------------------------------------------------------

 ---
 CrO
 ---
 Symbolic Z-matrix:
 Charge =  0 Multiplicity = 5

                         Standard orientation:
 ---------------------------------------------------------------------
 Center     Atomic      Atomic             Coordinates (Angstroms)
 Number     Number       Type             X           Y           Z
 ---------------------------------------------------------------------
      1         24           0        0.000000    0.000000    0.375000
      2          8           0        0.000000    0.000000   -1.125000
 ---------------------------------------------------------------------

 SCF Done:  E(ROHF) =  -101.818119988     A.U. after   22 cycles
 E2 =    -0.9139399556D+00 EUMP2 =    -0.10273205994369D+03
 CCSD(T)
 CCSD(T)= -0.10275240549D+03

 Unable to determine electronic state:  an orbital has unidentified symmetry.
 Alpha  occ. eigenvalues --   -3.75603  -2.52210  -2.48188  -2.45442  -1.21350
 Alpha  occ. eigenvalues --   -0.63452  -0.57528  -0.56010  -0.50562  -0.48185
 Alpha  occ. eigenvalues --   -0.39743  -0.30026
 Alpha virt. eigenvalues --    0.00703   0.01036   0.01774   0.02763   0.04197
 Alpha virt. eigenvalues --    0.04445   0.05339   0.05341   0.05479   0.05770
 Alpha virt. eigenvalues --    0.06072   0.06487   0.10607   0.13231   0.13274

 Mulliken charges and spin densities:
               1          2
     1  Cr   0.997158   3.886293
     2  O   -0.997158   0.113707
 Sum of Mulliken charges =  -0.00000   4.00000

 Dipole moment (field-independent basis, Debye):
    X=              0.0000    Y=              0.0000    Z=              4.4131  Tot=              4.4131
 Quadrupole moment (field-independent basis, Debye-Ang):
   XX=            -20.8520   YY=            -19.7472   ZZ=            -24.4635
   XY=              0.0000   XZ=              0.0000   YZ=              0.0000

 \\#P ROCCSD(T)=(maxcyc=150, Full, SaveAmplitudes, ReadAmplitudes)/Gen
 0=-102.7320599\CCSD=-102.7030249\CCSD(T)=-102.7524055\RMSD=1.700e-09\P
 Normal termination of Gaussian 16 at Sat Mar 10 07:28:37 2018.
