 Gaussian 16, Revision A.03,
 Gaussian 16:  ES64L-G16RevA.03 25-Dec-2016

 ----------------------------------------------------------------------
 #P ROCCSD(T)=(maxcyc=150, Window=(6,0), SaveAmplitudes, ReadAmplitudes
 )/Gen 5d 7f SCF=(maxcycles=300) Integral(NoXCTest, DKHSO) MaxDisk=500G
 B Pop=Regular Guess=Read
 ----------------------------------------------------------------------

 ---
 CrH
 ---
 Symbolic Z-matrix:
 Charge =  0 Multiplicity = 6

                         Standard orientation:
 ---------------------------------------------------------------------
 Center     Atomic      Atomic             Coordinates (Angstroms)
 Number     Number       Type             X           Y           Z
 ---------------------------------------------------------------------
      1         24           0        0.000000    0.000000    0.044000
      2          1           0        0.000000    0.000000   -1.056000
 ---------------------------------------------------------------------

 SCF Done:  E(ROHF) =  -1050.04302628     A.U. after   53 cycles
 E2 =    -0.6085034784D+00 EUMP2 =    -0.10506515297558D+04
 CCSD(T)
 CCSD(T)= -0.10506600420D+04

 The electronic state is 6-SG.
 Alpha  occ. eigenvalues -- -222.08814 -26.67152 -22.30621 -22.30621 -22.30536
 Alpha  occ. eigenvalues --   -3.56636  -2.32346  -2.31554  -2.31554  -0.48066
 Alpha  occ. eigenvalues --   -0.43605  -0.43605  -0.40744  -0.40744  -0.24937
 Alpha virt. eigenvalues --    0.01598   0.01757   0.01757   0.02271   0.04718
 Alpha virt. eigenvalues --    0.05506   0.05506   0.05523   0.05523   0.05929
 Alpha virt. eigenvalues --    0.05929   0.05980   0.09369   0.13471   0.16851

 Mulliken charges and spin densities:
               1          2
     1  Cr   0.272321   4.982945
     2  H   -0.272321   0.017055
 Sum of Mulliken charges =  -0.00000   5.00000

 Dipole moment (field-independent basis, Debye):
    X=             -0.0000    Y=              0.0000    Z=              2.0355  Tot=              2.0355
 Quadrupole moment (field-independent basis, Debye-Ang):
   XX=            -16.8451   YY=            -16.8451   ZZ=            -18.2902
   XY=              0.0000   XZ=             -0.0000   YZ=              0.0000

 1\1\GINC-C505-052\SP\ROCCSD(T)-RW\Gen\Cr1H1(6)\AANNABE\25-Feb-2018\0\\
 #P ROCCSD(T)=(maxcyc=150, Window=(6,0), SaveAmplitudes, ReadAmplitudes
 )/Gen 5d 7f SCF=(maxcycles=300) Integral(NoXCTest, DKHSO) MaxDisk=500G
 B Pop=Regular Guess=Read\\CrH\\0,6\Cr,0,0.,0.,0.\H,0,0.,0.,1.1\\Versio
 n=ES64L-G16RevA.03\State=6-SG\HF=-1050.0430263\MP2=-1050.6515298\PUHF=
 -1050.0430263\PMP2-0=-1050.6515298\CCSD=-1050.6390856\CCSD(T)=-1050.66
 0042\RMSD=4.657e-09\PG=C*V [C*(H1Cr1)]\\@

 Normal termination of Gaussian 16 at Sun Feb 25 17:54:08 2018.
