 Gaussian 16, Revision A.03,
 Gaussian 16:  ES64L-G16RevA.03 25-Dec-2016

 ----------------------------------------------------------------------
 #P ROCCSD(T)=(maxcyc=150, Full, SaveAmplitudes, ReadAmplitudes)/Gen 5d
  7f SCF=(maxcycles=300) Integral(NoXCTest) MaxDisk=500GB Pop=Regular P
 seudo=Read Guess=Read
 ----------------------------------------------------------------------

 ---
 MnO
 ---
 Symbolic Z-matrix:
 Charge =  0 Multiplicity = 6

                         Standard orientation:
 ---------------------------------------------------------------------
 Center     Atomic      Atomic             Coordinates (Angstroms)
 Number     Number       Type             X           Y           Z
 ---------------------------------------------------------------------
      1         25           0        0.000000    0.000000    0.339394
      2          8           0        0.000000    0.000000   -1.060606
 ---------------------------------------------------------------------

 SCF Done:  E(ROHF) =  -119.304971106     A.U. after   21 cycles
 E2 =    -0.9894757509D+00 EUMP2 =    -0.12029444685726D+03
 CCSD(T)
 CCSD(T)= -0.12030484697D+03

 The electronic state is 6-SG.
 Alpha  occ. eigenvalues --   -4.09155  -2.75315  -2.75315  -2.72912  -1.22594
 Alpha  occ. eigenvalues --   -0.70499  -0.70499  -0.63309  -0.63309  -0.55717
 Alpha  occ. eigenvalues --   -0.41164  -0.41164  -0.31882
 Alpha virt. eigenvalues --    0.01098   0.01977   0.01977   0.03065   0.04687
 Alpha virt. eigenvalues --    0.05905   0.05905   0.05930   0.05930   0.06584
 Alpha virt. eigenvalues --    0.07130   0.07130   0.11531   0.14118   0.17774

 Mulliken charges and spin densities:
               1          2
     1  Mn   1.108612   4.787542
     2  O   -1.108612   0.212458
 Sum of Mulliken charges =  -0.00000   5.00000

 Dipole moment (field-independent basis, Debye):
    X=              0.0000    Y=              0.0000    Z=              4.2159  Tot=              4.2159
 Quadrupole moment (field-independent basis, Debye-Ang):
   XX=            -19.5786   YY=            -19.5786   ZZ=            -23.1314
   XY=              0.0000   XZ=              0.0000   YZ=              0.0000

 \\#P ROCCSD(T)=(maxcyc=150, Full, SaveAmplitudes, ReadAmplitudes)/Gen
 9.3049711\PMP2-0=-120.2944469\CCSD=-120.2607025\CCSD(T)=-120.304847\RM
 Normal termination of Gaussian 16 at Mon Mar 12 16:11:30 2018.
