 Gaussian 16, Revision A.03,
 Gaussian 16:  ES64L-G16RevA.03 25-Dec-2016

 ----------------------------------------------------------------------
 #P ROCCSD(T)=(maxcyc=150, Full, SaveAmplitudes, ReadAmplitudes)/Gen 5d
  7f SCF=(maxcycles=300, VShift=400) Integral(NoXCTest) MaxDisk=500GB P
 op=Full Pseudo=Read Guess=Read
 ----------------------------------------------------------------------

 ---
 ScO
 ---
 Symbolic Z-matrix:
 Charge =  0 Multiplicity = 2

                         Standard orientation:
 ---------------------------------------------------------------------
 Center     Atomic      Atomic             Coordinates (Angstroms)
 Number     Number       Type             X           Y           Z
 ---------------------------------------------------------------------
      1         21           0        0.000000    0.000000    0.524138
      2          8           0        0.000000    0.000000   -1.375862
 ---------------------------------------------------------------------

 SCF Done:  E(ROHF) =  -61.9075655341     A.U. after   42 cycles
 E2 =    -0.6901393311D+00 EUMP2 =    -0.62597704865223D+02
 CCSD(T)
 CCSD(T)= -0.62630330514D+02

 The electronic state is 2-SG.
 Alpha  occ. eigenvalues --   -2.70342  -1.69264  -1.69232  -1.69232  -1.11033
 Alpha  occ. eigenvalues --   -0.40316  -0.36516  -0.36516  -0.27398
 Alpha virt. eigenvalues --   -0.00894  -0.00894   0.00922   0.01940   0.03037
 Alpha virt. eigenvalues --    0.03037   0.03346   0.03346   0.04101   0.04314
 Alpha virt. eigenvalues --    0.04314   0.04896   0.06039   0.06039   0.09973

 Mulliken charges and spin densities:
               1          2
     1  Sc   1.209208   0.977695
     2  O   -1.209208   0.022305
 Sum of Mulliken charges =  -0.00000   1.00000

 Dipole moment (field-independent basis, Debye):
    X=              0.0000    Y=             -0.0000    Z=              6.5927  Tot=              6.5927
 Quadrupole moment (field-independent basis, Debye-Ang):
   XX=            -21.9942   YY=            -21.9942   ZZ=            -34.2809
   XY=             -0.0000   XZ=              0.0000   YZ=              0.0000

 \\#P ROCCSD(T)=(maxcyc=150, Full, SaveAmplitudes, ReadAmplitudes)/Gen
 UHF=-61.9075655\PMP2-0=-62.5977049\CCSD=-62.5831748\CCSD(T)=-62.630330
 Normal termination of Gaussian 16 at Thu Apr 19 08:02:31 2018.
