 Gaussian 16, Revision A.03,
 Gaussian 16:  ES64L-G16RevA.03 25-Dec-2016

 ----------------------------------------------------------------------
 #P ROCCSD(T)=(maxcyc=150, Full, SaveAmplitudes, ReadAmplitudes)/Gen 5d
  7f SCF=(maxcycles=300) Integral(NoXCTest) MaxDisk=500GB Pop=Regular P
 seudo=Read Guess=Read IOp(5/15=2)
 ----------------------------------------------------------------------

 ---
 CrO
 ---
 Symbolic Z-matrix:
 Charge =  0 Multiplicity = 5

                         Standard orientation:
 ---------------------------------------------------------------------
 Center     Atomic      Atomic             Coordinates (Angstroms)
 Number     Number       Type             X           Y           Z
 ---------------------------------------------------------------------
      1         24           0        0.000000    0.000000    0.450000
      2          8           0        0.000000    0.000000   -1.350000
 ---------------------------------------------------------------------

 SCF Done:  E(ROHF) =  -102.006781911     A.U. after   93 cycles
 E2 =    -0.8703539535D+00 EUMP2 =    -0.10287713586479D+03
 CCSD(T)
 CCSD(T)= -0.10293132478D+03

 Unable to determine electronic state:  an orbital has unidentified symmetry.
 Alpha  occ. eigenvalues --   -3.69285  -2.47564  -2.42548  -2.41809  -1.07935
 Alpha  occ. eigenvalues --   -0.57133  -0.55497  -0.54879  -0.51798  -0.34051
 Alpha  occ. eigenvalues --   -0.32751  -0.32669
 Alpha virt. eigenvalues --   -0.04817   0.00672   0.01352   0.01711   0.03725
 Alpha virt. eigenvalues --    0.04934   0.06170   0.07411   0.07418   0.07627
 Alpha virt. eigenvalues --    0.08344   0.08721   0.12922   0.13949   0.15457

 Mulliken charges and spin densities:
               1          2
     1  Cr   1.178470   3.940681
     2  O   -1.178470   0.059319
 Sum of Mulliken charges =  -0.00000   4.00000

 Dipole moment (field-independent basis, Debye):
    X=              0.0000    Y=              0.0000    Z=              9.8414  Tot=              9.8414
 Quadrupole moment (field-independent basis, Debye-Ang):
   XX=            -19.5544   YY=            -18.6931   ZZ=            -23.8989
   XY=              0.0000   XZ=              0.0000   YZ=              0.0000

 \\#P ROCCSD(T)=(maxcyc=150, Full, SaveAmplitudes, ReadAmplitudes)/Gen
 SD=-102.8788106\CCSD(T)=-102.9313248\RMSD=8.697e-09\PG=C*V [C*(O1Cr1)]
 Normal termination of Gaussian 16 at Mon Mar 12 14:41:31 2018.
