 Gaussian 16, Revision A.03,
 Gaussian 16:  ES64L-G16RevA.03 25-Dec-2016

 ----------------------------------------------------------------------
 #P ROCCSD(T)=(MaxCyc=150, Full)/Gen SCF=(maxcycle=400) Pseudo=Read Int
 egral(NoXCTest) Pop=Regular MaxDisk=500GB
 ----------------------------------------------------------------------

 ---
 FeO
 ---
 Symbolic Z-matrix:
 Charge =  0 Multiplicity = 5

                         Standard orientation:
 ---------------------------------------------------------------------
 Center     Atomic      Atomic             Coordinates (Angstroms)
 Number     Number       Type             X           Y           Z
 ---------------------------------------------------------------------
      1         26           0        0.000000    0.000000    0.282353
      2          8           0        0.000000    0.000000   -0.917647
 ---------------------------------------------------------------------

 SCF Done:  E(ROHF) =  -138.211065302     A.U. after   28 cycles
 E2 =    -0.1100365886D+01 EUMP2 =    -0.13931143118786D+03
 CCSD(T)
 CCSD(T)= -0.13929593064D+03

 Unable to determine electronic state:  partially filled degenerate orbitals.
 Alpha  occ. eigenvalues --   -4.34597  -3.01810  -2.92701  -2.92701  -1.32319
 Alpha  occ. eigenvalues --   -0.80532  -0.80532  -0.67129  -0.61046  -0.56748
 Alpha  occ. eigenvalues --   -0.41837  -0.41837  -0.29174
 Alpha virt. eigenvalues --    0.02248   0.02448   0.02448   0.02814   0.05920
 Alpha virt. eigenvalues --    0.06544   0.06544   0.06700   0.06710   0.08318
 Alpha virt. eigenvalues --    0.08318   0.08969   0.11055   0.16186   0.19921

 Mulliken charges and spin densities:
               1          2
     1  Fe   0.796441   3.679693
     2  O   -0.796441   0.320307
 Sum of Mulliken charges =  -0.00000   4.00000

 Dipole moment (field-independent basis, Debye):
    X=              0.0000    Y=              0.0000    Z=              1.4681  Tot=              1.4681
 Quadrupole moment (field-independent basis, Debye-Ang):
   XX=            -19.5713   YY=            -19.5713   ZZ=            -21.3260
   XY=              0.0000   XZ=              0.0000   YZ=              0.0000

 \\#P ROCCSD(T)=(MaxCyc=150, Full)/Gen SCF=(maxcycle=400) Pseudo=Read I
 6553\CCSD=-139.251009\CCSD(T)=-139.2959306\RMSD=3.527e-09\PG=C*V [C*(O
 Normal termination of Gaussian 16 at Sun Mar 25 02:35:49 2018.
