 Gaussian 16, Revision A.03,
 Gaussian 16:  ES64L-G16RevA.03 25-Dec-2016

 ----------------------------------------------------------------------
 #P ROCCSD(T)=(MaxCyc=150, Full)/Gen SCF=(maxcycle=400) Pseudo=Read Int
 egral(NoXCTest) Pop=Regular MaxDisk=500GB
 ----------------------------------------------------------------------

 ---
 FeO
 ---
 Symbolic Z-matrix:
 Charge =  0 Multiplicity = 5

                         Standard orientation:
 ---------------------------------------------------------------------
 Center     Atomic      Atomic             Coordinates (Angstroms)
 Number     Number       Type             X           Y           Z
 ---------------------------------------------------------------------
      1         26           0        0.000000    0.000000    0.282353
      2          8           0        0.000000    0.000000   -0.917647
 ---------------------------------------------------------------------

 SCF Done:  E(ROHF) =  -138.206671479     A.U. after   25 cycles
 E2 =    -0.1051403397D+01 EUMP2 =    -0.13925807487631D+03
 CCSD(T)
 CCSD(T)= -0.13924488493D+03

 Unable to determine electronic state:  partially filled degenerate orbitals.
 Alpha  occ. eigenvalues --   -4.34657  -3.01882  -2.92742  -2.92742  -1.32385
 Alpha  occ. eigenvalues --   -0.80536  -0.80536  -0.67150  -0.61061  -0.56759
 Alpha  occ. eigenvalues --   -0.41847  -0.41847  -0.29191
 Alpha virt. eigenvalues --    0.02371   0.02689   0.02689   0.03062   0.07398
 Alpha virt. eigenvalues --    0.08608   0.08608   0.09962   0.09993   0.10195
 Alpha virt. eigenvalues --    0.10195   0.11528   0.12084   0.17909   0.26589

 Mulliken charges and spin densities:
               1          2
     1  Fe   0.572376   3.696363
     2  O   -0.572376   0.303637
 Sum of Mulliken charges =  -0.00000   4.00000

 Dipole moment (field-independent basis, Debye):
    X=              0.0000    Y=              0.0000    Z=              1.4763  Tot=              1.4763
 Quadrupole moment (field-independent basis, Debye-Ang):
   XX=            -19.5722   YY=            -19.5722   ZZ=            -21.3470
   XY=              0.0000   XZ=              0.0000   YZ=              0.0000

 \\#P ROCCSD(T)=(MaxCyc=150, Full)/Gen SCF=(maxcycle=400) Pseudo=Read I
 80565\CCSD=-139.2021091\CCSD(T)=-139.2448849\RMSD=8.846e-09\PG=C*V [C*
 Normal termination of Gaussian 16 at Sun Mar 25 00:40:49 2018.
