 Gaussian 16, Revision A.03,
 Gaussian 16:  ES64L-G16RevA.03 25-Dec-2016

 ----------------------------------------------------------------------
 #P ROCCSD(T)=(MaxCyc=150, Full)/Gen SCF=(maxcycle=400, vshift=200) Pse
 udo=Read Integral(NoXCTest) Pop=Regular MaxDisk=500GB Guess=Read IOp(5
 /15=2)
 ----------------------------------------------------------------------

 ---
 ZnH
 ---
 Symbolic Z-matrix:
 Charge =  0 Multiplicity = 2

                         Standard orientation:
 ---------------------------------------------------------------------
 Center     Atomic      Atomic             Coordinates (Angstroms)
 Number     Number       Type             X           Y           Z
 ---------------------------------------------------------------------
      1         30           0        0.000000    0.000000    0.054839
      2          1           0        0.000000    0.000000   -1.645161
 ---------------------------------------------------------------------

 SCF Done:  E(ROHF) =  -226.550183154     A.U. after   19 cycles
 E2 =    -0.1097513558D+01 EUMP2 =    -0.22764769671190D+03
 CCSD(T)
 CCSD(T)= -0.22760644520D+03

 The electronic state is 2-SG.
 Alpha  occ. eigenvalues --   -5.57781  -3.87204  -3.87204  -3.87017  -0.79602
 Alpha  occ. eigenvalues --   -0.79602  -0.79287  -0.79065  -0.79065  -0.44604
 Alpha  occ. eigenvalues --   -0.28300
 Alpha virt. eigenvalues --    0.01885   0.01885   0.02835   0.03477   0.06577
 Alpha virt. eigenvalues --    0.06577   0.07790   0.14089   0.16566   0.17942
 Alpha virt. eigenvalues --    0.17942   0.18046   0.18046   0.20889   0.23268

 Mulliken charges and spin densities:
               1          2
     1  Zn   0.310344   0.916154
     2  H   -0.310344   0.083846
 Sum of Mulliken charges =   0.00000   1.00000

 Dipole moment (field-independent basis, Debye):
    X=              0.0000    Y=              0.0000    Z=              1.0843  Tot=              1.0843
 Quadrupole moment (field-independent basis, Debye-Ang):
   XX=            -14.5749   YY=            -14.5749   ZZ=            -21.3698
   XY=              0.0000   XZ=              0.0000   YZ=              0.0000

 \\#P ROCCSD(T)=(MaxCyc=150, Full)/Gen SCF=(maxcycle=400, vshift=200) P
 CCSD(T)=-227.6064452\RMSD=5.568e-09\PG=C*V [C*(H1Zn1)]\\@
 Normal termination of Gaussian 16 at Sat Apr 21 11:19:44 2018.
