 Gaussian 16, Revision A.03,
 Gaussian 16:  ES64L-G16RevA.03 25-Dec-2016

 ----------------------------------------------------------------------
 #P ROCCSD(T)=(MaxCyc=150, Full)/Gen SCF=(maxcycle=400, vshift=200) Pse
 udo=Read Integral(NoXCTest) Pop=Regular MaxDisk=500GB Guess=Read IOp(5
 /15=2)
 ----------------------------------------------------------------------

 ---
 ZnH
 ---
 Symbolic Z-matrix:
 Charge =  0 Multiplicity = 2

                         Standard orientation:
 ---------------------------------------------------------------------
 Center     Atomic      Atomic             Coordinates (Angstroms)
 Number     Number       Type             X           Y           Z
 ---------------------------------------------------------------------
      1         30           0        0.000000    0.000000    0.054839
      2          1           0        0.000000    0.000000   -1.645161
 ---------------------------------------------------------------------

 SCF Done:  E(ROHF) =  -226.548605580     A.U. after   18 cycles
 E2 =    -0.1042999271D+01 EUMP2 =    -0.22759160485050D+03
 CCSD(T)
 CCSD(T)= -0.22755117477D+03

 The electronic state is 2-SG.
 Alpha  occ. eigenvalues --   -5.57810  -3.87222  -3.87222  -3.87030  -0.79600
 Alpha  occ. eigenvalues --   -0.79600  -0.79282  -0.79060  -0.79060  -0.44608
 Alpha  occ. eigenvalues --   -0.28298
 Alpha virt. eigenvalues --    0.02001   0.02001   0.02951   0.03851   0.07516
 Alpha virt. eigenvalues --    0.07516   0.08782   0.15900   0.17653   0.23980
 Alpha virt. eigenvalues --    0.23980   0.24903   0.24903   0.25104   0.29243

 Mulliken charges and spin densities:
               1          2
     1  Zn   0.342689   0.922131
     2  H   -0.342689   0.077869
 Sum of Mulliken charges =  -0.00000   1.00000

 Dipole moment (field-independent basis, Debye):
    X=              0.0000    Y=              0.0000    Z=              1.0814  Tot=              1.0814
 Quadrupole moment (field-independent basis, Debye-Ang):
   XX=            -14.5778   YY=            -14.5778   ZZ=            -21.3712
   XY=              0.0000   XZ=              0.0000   YZ=              0.0000

 \\#P ROCCSD(T)=(MaxCyc=150, Full)/Gen SCF=(maxcycle=400, vshift=200) P
 CCSD(T)=-227.5511748\RMSD=9.912e-09\PG=C*V [C*(H1Zn1)]\\@
 Normal termination of Gaussian 16 at Sat Apr 21 10:27:19 2018.
