 Gaussian 16, Revision A.03,
 Gaussian 16:  ES64L-G16RevA.03 25-Dec-2016

 ----------------------------------------------------------------------
 #P ROCCSD(T)=(MaxCyc=150, Full)/Gen SCF=(maxcycle=400, vshift=200) Pse
 udo=Read Integral(NoXCTest) Pop=Regular MaxDisk=500GB Guess=Read IOp(5
 /15=2)
 ----------------------------------------------------------------------

 ---
 ZnH
 ---
 Symbolic Z-matrix:
 Charge =  0 Multiplicity = 2

                         Standard orientation:
 ---------------------------------------------------------------------
 Center     Atomic      Atomic             Coordinates (Angstroms)
 Number     Number       Type             X           Y           Z
 ---------------------------------------------------------------------
      1         30           0        0.000000    0.000000    0.054839
      2          1           0        0.000000    0.000000   -1.645161
 ---------------------------------------------------------------------

 SCF Done:  E(ROHF) =  -226.550497567     A.U. after   18 cycles
 E2 =    -0.1123806030D+01 EUMP2 =    -0.22767430359715D+03
 CCSD(T)
 CCSD(T)= -0.22763107696D+03

 The electronic state is 2-SG.
 Alpha  occ. eigenvalues --   -5.57794  -3.87204  -3.87204  -3.87017  -0.79601
 Alpha  occ. eigenvalues --   -0.79601  -0.79287  -0.79065  -0.79065  -0.44605
 Alpha  occ. eigenvalues --   -0.28301
 Alpha virt. eigenvalues --    0.01827   0.01827   0.02375   0.03232   0.06163
 Alpha virt. eigenvalues --    0.06163   0.06772   0.12065   0.13169   0.15365
 Alpha virt. eigenvalues --    0.15365   0.15395   0.15395   0.17968   0.20843

 Mulliken charges and spin densities:
               1          2
     1  Zn   0.270423   0.914787
     2  H   -0.270423   0.085213
 Sum of Mulliken charges =  -0.00000   1.00000

 Dipole moment (field-independent basis, Debye):
    X=              0.0000    Y=              0.0000    Z=              1.0848  Tot=              1.0848
 Quadrupole moment (field-independent basis, Debye-Ang):
   XX=            -14.5744   YY=            -14.5744   ZZ=            -21.3670
   XY=              0.0000   XZ=              0.0000   YZ=              0.0000

 \\#P ROCCSD(T)=(MaxCyc=150, Full)/Gen SCF=(maxcycle=400, vshift=200) P
 CCSD(T)=-227.631077\RMSD=3.718e-09\PG=C*V [C*(H1Zn1)]\\@
 Normal termination of Gaussian 16 at Sun Apr 29 00:32:57 2018.
