 Gaussian 16, Revision A.03,
 Gaussian 16:  ES64L-G16RevA.03 25-Dec-2016

 ----------------------------------------------------------------------
 #P ROCCSD(T)=(maxcyc=150, Full, SaveAmplitudes, ReadAmplitudes)/Gen 5d
  7f SCF=(maxcycles=300) Integral(NoXCTest) MaxDisk=500GB Pop=Regular P
 seudo=Read Guess=Read IOp(5/15=2)
 ----------------------------------------------------------------------

 ---
 MnO
 ---
 Symbolic Z-matrix:
 Charge =  0 Multiplicity = 6

                         Standard orientation:
 ---------------------------------------------------------------------
 Center     Atomic      Atomic             Coordinates (Angstroms)
 Number     Number       Type             X           Y           Z
 ---------------------------------------------------------------------
      1         25           0        0.000000    0.000000    0.315152
      2          8           0        0.000000    0.000000   -0.984848
 ---------------------------------------------------------------------

 SCF Done:  E(ROHF) =  -119.020340904     A.U. after   31 cycles
 E2 =    -0.9295064101D+00 EUMP2 =    -0.11994984731404D+03
 CCSD(T)
 CCSD(T)= -0.11995650393D+03

 The electronic state is 6-SG.
 Alpha  occ. eigenvalues --   -4.21684  -2.76742  -2.76653  -2.76653  -1.27638
 Alpha  occ. eigenvalues --   -0.73440  -0.73440  -0.61425  -0.61425  -0.60130
 Alpha  occ. eigenvalues --   -0.40704  -0.40704  -0.30081
 Alpha virt. eigenvalues --    0.01921   0.02419   0.02419   0.03165   0.06405
 Alpha virt. eigenvalues --    0.07587   0.07587   0.08762   0.08762   0.09359
 Alpha virt. eigenvalues --    0.09359   0.10276   0.12077   0.16419   0.24560

 Mulliken charges and spin densities:
               1          2
     1  Mn   0.817180   4.763600
     2  O   -0.817180   0.236400
 Sum of Mulliken charges =  -0.00000   5.00000

 Dipole moment (field-independent basis, Debye):
    X=              0.0000    Y=              0.0000    Z=              2.7139  Tot=              2.7139
 Quadrupole moment (field-independent basis, Debye-Ang):
   XX=            -19.8671   YY=            -19.8671   ZZ=            -22.9558
   XY=              0.0000   XZ=              0.0000   YZ=              0.0000

 \\#P ROCCSD(T)=(maxcyc=150, Full, SaveAmplitudes, ReadAmplitudes)/Gen
 .9313203\CCSD=-119.9170931\CCSD(T)=-119.9565039\RMSD=3.719e-09\PG=C*V
 Normal termination of Gaussian 16 at Wed Mar 14 03:04:57 2018.
