 Gaussian 16, Revision A.03,
 Gaussian 16:  ES64L-G16RevA.03 25-Dec-2016

 ----------------------------------------------------------------------
 #P ROCCSD(T)=(maxcyc=150, Full)/Gen 5d 7f SCF=(maxcycles=300) Integral
 (NoXCTest) MaxDisk=500GB Pop=Regular Pseudo=Read
 ----------------------------------------------------------------------

 ---
 MnH
 ---
 Symbolic Z-matrix:
 Charge =  0 Multiplicity = 7

                         Standard orientation:
 ---------------------------------------------------------------------
 Center     Atomic      Atomic             Coordinates (Angstroms)
 Number     Number       Type             X           Y           Z
 ---------------------------------------------------------------------
      1         25           0        0.000000    0.000000    0.065385
      2          1           0        0.000000    0.000000   -1.634615
 ---------------------------------------------------------------------

 SCF Done:  E(ROHF) =  -104.060341126     A.U. after   24 cycles
 E2 =    -0.5683917700D+00 EUMP2 =    -0.10462873289600D+03
 CCSD(T)
 CCSD(T)= -0.10465152785D+03

 The electronic state is 7-SG.
 Alpha  occ. eigenvalues --   -4.16292  -2.81007  -2.81007  -2.80799  -0.64456
 Alpha  occ. eigenvalues --   -0.64456  -0.64243  -0.63755  -0.63755  -0.40843
 Alpha  occ. eigenvalues --   -0.26153
 Alpha virt. eigenvalues --    0.01237   0.01237   0.02326   0.03133   0.05707
 Alpha virt. eigenvalues --    0.05707   0.08303   0.08473   0.08473   0.08945
 Alpha virt. eigenvalues --    0.08945   0.09775   0.13909   0.19727   0.22626

 Mulliken charges and spin densities:
               1          2
     1  Mn   0.431939   5.959278
     2  H   -0.431939   0.040722
 Sum of Mulliken charges =  -0.00000   6.00000

 Dipole moment (field-independent basis, Debye):
    X=              0.0000    Y=              0.0000    Z=              1.2952  Tot=              1.2952
 Quadrupole moment (field-independent basis, Debye-Ang):
   XX=            -16.1782   YY=            -16.1782   ZZ=            -26.3506
   XY=              0.0000   XZ=              0.0000   YZ=              0.0000

 \\#P ROCCSD(T)=(maxcyc=150, Full)/Gen 5d 7f SCF=(maxcycles=300) Integr
 329\MP4SDQ=-104.6353075\CCSD=-104.6361556\CCSD(T)=-104.6515278\RMSD=4.
 Normal termination of Gaussian 16 at Tue Feb 13 06:58:50 2018.
