 Gaussian 16, Revision A.03,
 Gaussian 16:  ES64L-G16RevA.03 25-Dec-2016

 ----------------------------------------------------------------------
 #P ROCCSD(T)=(MaxCyc=150, Full)/Gen SCF=(maxcycle=400) Pseudo=Read Int
 egral(NoXCTest) Pop=Regular MaxDisk=500GB Guess=Read IOp(5/15=2)
 ----------------------------------------------------------------------

 ---
 CuH
 ---
 Symbolic Z-matrix:
 Charge =  0 Multiplicity = 1

                         Standard orientation:
 ---------------------------------------------------------------------
 Center     Atomic      Atomic             Coordinates (Angstroms)
 Number     Number       Type             X           Y           Z
 ---------------------------------------------------------------------
      1         29           0        0.000000    0.000000    0.050000
      2          1           0        0.000000    0.000000   -1.450000
 ---------------------------------------------------------------------

 SCF Done:  E(ROHF) =  -196.729866604     A.U. after   11 cycles
 E2 =    -0.1082784622D+01 EUMP2 =    -0.19781265122598D+03
 CCSD(T)
 CCSD(T)= -0.19773324976D+03

 The electronic state is 1-SG.
 Alpha  occ. eigenvalues --   -5.23847  -3.44180  -3.43831  -3.43831  -0.50451
 Alpha  occ. eigenvalues --   -0.49790  -0.49790  -0.49612  -0.49612  -0.34013
 Alpha virt. eigenvalues --    0.00136   0.02936   0.02936   0.03591   0.05394
 Alpha virt. eigenvalues --    0.10013   0.10346   0.10346   0.17204   0.19625
 Alpha virt. eigenvalues --    0.19625   0.20360   0.20360   0.21299   0.25902

 Mulliken charges and spin densities:
               1          2
     1  Cu   0.364900  -0.000000
     2  H   -0.364900  -0.000000
 Sum of Mulliken charges =  -0.00000  -0.00000

 Dipole moment (field-independent basis, Debye):
    X=              0.0000    Y=              0.0000    Z=              3.9729  Tot=              3.9729
 Quadrupole moment (field-independent basis, Debye-Ang):
   XX=            -13.6404   YY=            -13.6404   ZZ=            -15.9665
   XY=              0.0000   XZ=              0.0000   YZ=              0.0000

 P ROCCSD(T)=(MaxCyc=150, Full)/Gen SCF=(maxcycle=400) Pseudo=Read Inte
 2-0=-197.8126512\MP4SDQ=-197.7713902\CCSD=-197.696422\CCSD(T)=-197.733
 Normal termination of Gaussian 16 at Wed Apr  4 23:01:06 2018.
