 Gaussian 16, Revision A.03,
 Gaussian 16:  ES64L-G16RevA.03 25-Dec-2016

 ----------------------------------------------------------------------
 #P ROCCSD(T)=(MaxCyc=150, Full)/Gen SCF=(maxcycle=400) Pseudo=Read Int
 egral(NoXCTest) Pop=Regular MaxDisk=500GB Guess=Read IOp(5/15=2)
 ----------------------------------------------------------------------

 ---
 CuH
 ---
 Symbolic Z-matrix:
 Charge =  0 Multiplicity = 1

                         Standard orientation:
 ---------------------------------------------------------------------
 Center     Atomic      Atomic             Coordinates (Angstroms)
 Number     Number       Type             X           Y           Z
 ---------------------------------------------------------------------
      1         29           0        0.000000    0.000000    0.050000
      2          1           0        0.000000    0.000000   -1.450000
 ---------------------------------------------------------------------

 SCF Done:  E(ROHF) =  -196.731180675     A.U. after   10 cycles
 E2 =    -0.1134629211D+01 EUMP2 =    -0.19786580988558D+03
 CCSD(T)
 CCSD(T)= -0.19778503336D+03

 The electronic state is 1-SG.
 Alpha  occ. eigenvalues --   -5.23850  -3.44171  -3.43829  -3.43829  -0.50449
 Alpha  occ. eigenvalues --   -0.49795  -0.49795  -0.49620  -0.49620  -0.34018
 Alpha virt. eigenvalues --    0.00119   0.02642   0.02642   0.03252   0.05029
 Alpha virt. eigenvalues --    0.08941   0.08976   0.08976   0.13461   0.13514
 Alpha virt. eigenvalues --    0.13514   0.13892   0.13892   0.19914   0.22176

 Mulliken charges and spin densities:
               1          2
     1  Cu   0.343506   0.000000
     2  H   -0.343506   0.000000
 Sum of Mulliken charges =  -0.00000   0.00000

 Dipole moment (field-independent basis, Debye):
    X=              0.0000    Y=              0.0000    Z=              3.9625  Tot=              3.9625
 Quadrupole moment (field-independent basis, Debye-Ang):
   XX=            -13.6302   YY=            -13.6302   ZZ=            -15.9834
   XY=              0.0000   XZ=              0.0000   YZ=              0.0000

 P ROCCSD(T)=(MaxCyc=150, Full)/Gen SCF=(maxcycle=400) Pseudo=Read Inte
 -0=-197.8658099\MP4SDQ=-197.8203363\CCSD=-197.7461712\CCSD(T)=-197.785
 Normal termination of Gaussian 16 at Wed Apr  4 23:56:14 2018.
