 Gaussian 16, Revision A.03,
 Gaussian 16:  ES64L-G16RevA.03 25-Dec-2016

 ----------------------------------------------------------------------
 #P ROCCSD(T)=(MaxCyc=150, Full)/Gen SCF=(maxcycle=400) Pseudo=Read Int
 egral(NoXCTest) Pop=Regular MaxDisk=500GB Guess=Read IOp(5/15=2)
 ----------------------------------------------------------------------

 ---
 CuH
 ---
 Symbolic Z-matrix:
 Charge =  0 Multiplicity = 1

                         Standard orientation:
 ---------------------------------------------------------------------
 Center     Atomic      Atomic             Coordinates (Angstroms)
 Number     Number       Type             X           Y           Z
 ---------------------------------------------------------------------
      1         29           0        0.000000    0.000000    0.050000
      2          1           0        0.000000    0.000000   -1.450000
 ---------------------------------------------------------------------

 SCF Done:  E(ROHF) =  -196.731253765     A.U. after    7 cycles
 E2 =    -0.1159567431D+01 EUMP2 =    -0.19789082119556D+03
 CCSD(T)
 CCSD(T)= -0.19780786147D+03

 The electronic state is 1-SG.
 Alpha  occ. eigenvalues --   -5.23852  -3.44172  -3.43830  -3.43830  -0.50449
 Alpha  occ. eigenvalues --   -0.49797  -0.49797  -0.49621  -0.49621  -0.34019
 Alpha virt. eigenvalues --    0.00052   0.02557   0.02557   0.02973   0.04273
 Alpha virt. eigenvalues --    0.07722   0.08610   0.08610   0.12119   0.12119
 Alpha virt. eigenvalues --    0.12137   0.12475   0.12475   0.15182   0.18594

 Mulliken charges and spin densities:
               1          2
     1  Cu   0.296996   0.000000
     2  H   -0.296996   0.000000
 Sum of Mulliken charges =  -0.00000   0.00000

 Dipole moment (field-independent basis, Debye):
    X=              0.0000    Y=              0.0000    Z=              3.9608  Tot=              3.9608
 Quadrupole moment (field-independent basis, Debye-Ang):
   XX=            -13.6287   YY=            -13.6287   ZZ=            -15.9861
   XY=              0.0000   XZ=              0.0000   YZ=              0.0000

 P ROCCSD(T)=(MaxCyc=150, Full)/Gen SCF=(maxcycle=400) Pseudo=Read Inte
 -0=-197.8908212\MP4SDQ=-197.8419171\CCSD=-197.76825\CCSD(T)=-197.80786
 Normal termination of Gaussian 16 at Thu Apr  5 02:41:45 2018.
