 Gaussian 16, Revision A.03,
 Gaussian 16:  ES64L-G16RevA.03 25-Dec-2016

 ----------------------------------------------------------------------
 #P ROCCSD(T)=(maxcyc=150, Full, SaveAmplitudes, ReadAmplitudes)/Gen 5d
  7f SCF=(maxcycles=300) Integral(NoXCTest) MaxDisk=500GB Pop=Regular P
 seudo=Read Guess=Read
 ----------------------------------------------------------------------

 ---
 CrO
 ---
 Symbolic Z-matrix:
 Charge =  0 Multiplicity = 5

                         Standard orientation:
 ---------------------------------------------------------------------
 Center     Atomic      Atomic             Coordinates (Angstroms)
 Number     Number       Type             X           Y           Z
 ---------------------------------------------------------------------
      1         24           0        0.000000    0.000000    0.400000
      2          8           0        0.000000    0.000000   -1.200000
 ---------------------------------------------------------------------

 SCF Done:  E(ROHF) =  -101.881036172     A.U. after   26 cycles
 E2 =    -0.9160133380D+00 EUMP2 =    -0.10279704950967D+03
 CCSD(T)
 CCSD(T)= -0.10282137180D+03

 Unable to determine electronic state:  an orbital has unidentified symmetry.
 Alpha  occ. eigenvalues --   -3.79271  -2.53549  -2.49620  -2.46309  -1.17806
 Alpha  occ. eigenvalues --   -0.61874  -0.58397  -0.57154  -0.47991  -0.43148
 Alpha  occ. eigenvalues --   -0.38663  -0.31700
 Alpha virt. eigenvalues --   -0.00223   0.00530   0.01531   0.02656   0.03504
 Alpha virt. eigenvalues --    0.04064   0.05310   0.05310   0.05438   0.05798
 Alpha virt. eigenvalues --    0.05857   0.06307   0.10795   0.12619   0.12717

 Mulliken charges and spin densities:
               1          2
     1  Cr   1.088180   3.910710
     2  O   -1.088180   0.089290
 Sum of Mulliken charges =  -0.00000   4.00000

 Dipole moment (field-independent basis, Debye):
    X=              0.0000    Y=              0.0000    Z=              6.1153  Tot=              6.1153
 Quadrupole moment (field-independent basis, Debye-Ang):
   XX=            -20.6838   YY=            -19.6020   ZZ=            -24.0311
   XY=              0.0000   XZ=              0.0000   YZ=              0.0000

 \\#P ROCCSD(T)=(maxcyc=150, Full, SaveAmplitudes, ReadAmplitudes)/Gen
 MP2-0=-102.7970495\CCSD=-102.7692831\CCSD(T)=-102.8213718\RMSD=4.015e-
 Normal termination of Gaussian 16 at Mon Mar 12 16:13:47 2018.
