 Gaussian 16, Revision A.03,
 Gaussian 16:  ES64L-G16RevA.03 25-Dec-2016

 ----------------------------------------------------------------------
 #P ROCCSD(T)=(maxcyc=150, Full, SaveAmplitudes, ReadAmplitudes)/Gen 5d
  7f SCF=(maxcycles=300) Integral(NoXCTest) MaxDisk=500GB Pop=Regular P
 seudo=Read Guess=Read IOp(5/15=2)
 ----------------------------------------------------------------------

 ---
 TiO
 ---
 Symbolic Z-matrix:
 Charge =  0 Multiplicity = 3

                         Standard orientation:
 ---------------------------------------------------------------------
 Center     Atomic      Atomic             Coordinates (Angstroms)
 Number     Number       Type             X           Y           Z
 ---------------------------------------------------------------------
      1         22           0        0.000000    0.000000    0.400000
      2          8           0        0.000000    0.000000   -1.100000
 ---------------------------------------------------------------------

 SCF Done:  E(ROHF) =  -73.5133808196     A.U. after   21 cycles
 E2 =    -0.7476566480D+00 EUMP2 =    -0.74261037467536D+02
 CCSD(T)
 CCSD(T)= -0.74288761060D+02

 Unable to determine electronic state:  an orbital has unidentified symmetry.
 Alpha  occ. eigenvalues --   -3.01361  -1.88837  -1.86781  -1.86781  -1.17023
 Alpha  occ. eigenvalues --   -0.48829  -0.48829  -0.48389  -0.41848  -0.24962
 Alpha virt. eigenvalues --    0.00703   0.00703   0.01911   0.02578   0.04367
 Alpha virt. eigenvalues --    0.04367   0.04944   0.05040   0.05232   0.05842
 Alpha virt. eigenvalues --    0.05842   0.07431   0.11376   0.11966   0.14079

 Mulliken charges and spin densities:
               1          2
     1  Ti   0.888125   2.008330
     2  O   -0.888125  -0.008330
 Sum of Mulliken charges =  -0.00000   2.00000

 Dipole moment (field-independent basis, Debye):
    X=              0.0000    Y=              0.0000    Z=              3.1138  Tot=              3.1138
 Quadrupole moment (field-independent basis, Debye-Ang):
   XX=            -21.4729   YY=            -21.4729   ZZ=            -28.4734
   XY=              0.0000   XZ=              0.0000   YZ=              0.0000

 \\#P ROCCSD(T)=(maxcyc=150, Full, SaveAmplitudes, ReadAmplitudes)/Gen
 .2477542\CCSD(T)=-74.2887611\RMSD=9.821e-09\PG=C*V [C*(O1Ti1)]\\@
 Normal termination of Gaussian 16 at Mon Mar 12 23:13:30 2018.
