 Gaussian 16, Revision A.03,
 Gaussian 16:  ES64L-G16RevA.03 25-Dec-2016

 ----------------------------------------------------------------------
 #P ROCCSD(T)=(maxcyc=150, Full)/Gen 5d 7f SCF=(maxcycles=300) Integral
 (NoXCTest, DKHSO) MaxDisk=500GB Pop=Regular IOp(5/15=2) Guess=Read
 ----------------------------------------------------------------------

 ---
 ScH
 ---
 Symbolic Z-matrix:
 Charge =  0 Multiplicity = 1

                         Standard orientation:
 ---------------------------------------------------------------------
 Center     Atomic      Atomic             Coordinates (Angstroms)
 Number     Number       Type             X           Y           Z
 ---------------------------------------------------------------------
      1         21           0        0.000000    0.000000    0.086364
      2          1           0        0.000000    0.000000   -1.813636
 ---------------------------------------------------------------------

 SCF Done:  E(ROHF) =  -763.830786260     A.U. after   12 cycles
 E2 =    -0.7895656020D+00 EUMP2 =    -0.76462035186223D+03
 CCSD(T)
 CCSD(T)= -0.76465775514D+03

 The electronic state is 1-SG.
 Alpha  occ. eigenvalues -- -166.93372 -19.38986 -15.81317 -15.81317 -15.80536
 Alpha  occ. eigenvalues --   -2.69749  -1.67221  -1.67221  -1.67064  -0.39352
 Alpha  occ. eigenvalues --   -0.23622
 Alpha virt. eigenvalues --    0.01028   0.01028   0.01398   0.01737   0.02582
 Alpha virt. eigenvalues --    0.02582   0.02667   0.02667   0.02711   0.03870
 Alpha virt. eigenvalues --    0.03920   0.03920   0.06620   0.06620   0.07052

 Mulliken charges and spin densities:
               1          2
     1  Sc   0.378706   0.000000
     2  H   -0.378706   0.000000
 Sum of Mulliken charges =  -0.00000   0.00000

 Dipole moment (field-independent basis, Debye):
    X=              0.0000    Y=              0.0000    Z=              1.7435  Tot=              1.7435
 Quadrupole moment (field-independent basis, Debye-Ang):
   XX=            -23.4049   YY=            -23.4049   ZZ=            -28.2123
   XY=             -0.0000   XZ=              0.0000   YZ=              0.0000

 P ROCCSD(T)=(maxcyc=150, Full)/Gen 5d 7f SCF=(maxcycles=300) Integral(
 P2-0=-764.6203519\MP4SDQ=-764.6364124\CCSD=-764.6371965\CCSD(T)=-764.6
 Normal termination of Gaussian 16 at Tue Feb 13 20:39:51 2018.
