 Gaussian 16, Revision A.03,
 Gaussian 16:  ES64L-G16RevA.03 25-Dec-2016

 ----------------------------------------------------------------------
 #P ROCCSD(T)=(maxcyc=150, Full)/Gen 5d 7f SCF=(maxcycles=300) Integral
 (NoXCTest) MaxDisk=500GB Pop=Regular Pseudo=Read IOp(5/15=2) Guess=Rea
 d
 ----------------------------------------------------------------------

 ---
 ScH
 ---
 Symbolic Z-matrix:
 Charge =  0 Multiplicity = 1

                         Standard orientation:
 ---------------------------------------------------------------------
 Center     Atomic      Atomic             Coordinates (Angstroms)
 Number     Number       Type             X           Y           Z
 ---------------------------------------------------------------------
      1         21           0        0.000000    0.000000    0.050000
      2          1           0        0.000000    0.000000   -1.050000
 ---------------------------------------------------------------------

 SCF Done:  E(ROHF) =  -46.4166493155     A.U. after    9 cycles
 E2 =    -0.4412341760D+00 EUMP2 =    -0.46857883491548D+02
 CCSD(T)
 CCSD(T)= -0.46892441544D+02

 The electronic state is 1-SG.
 Alpha  occ. eigenvalues --   -2.61356  -1.64762  -1.57678  -1.57678  -0.47415
 Alpha  occ. eigenvalues --   -0.21318
 Alpha virt. eigenvalues --    0.01266   0.01333   0.01333   0.01678   0.02605
 Alpha virt. eigenvalues --    0.02605   0.02621   0.02644   0.02644   0.04021
 Alpha virt. eigenvalues --    0.04441   0.04441   0.07060   0.07418   0.07418

 Mulliken charges and spin densities:
               1          2
     1  Sc   0.218587   0.000000
     2  H   -0.218587   0.000000
 Sum of Mulliken charges =   0.00000   0.00000

 Dipole moment (field-independent basis, Debye):
    X=              0.0000    Y=              0.0000    Z=              0.9987  Tot=              0.9987
 Quadrupole moment (field-independent basis, Debye-Ang):
   XX=            -23.6841   YY=            -23.6841   ZZ=            -22.1812
   XY=              0.0000   XZ=              0.0000   YZ=              0.0000

 P ROCCSD(T)=(maxcyc=150, Full)/Gen 5d 7f SCF=(maxcycles=300) Integral(
 PMP2-0=-46.8578835\MP4SDQ=-46.8741776\CCSD=-46.8738861\CCSD(T)=-46.892
 Normal termination of Gaussian 16 at Tue Feb 13 18:34:43 2018.
