 Gaussian 16, Revision A.03,
 Gaussian 16:  ES64L-G16RevA.03 25-Dec-2016

 ----------------------------------------------------------------------
 #P ROCCSD(T)=(maxcyc=150, Full, SaveAmplitudes, ReadAmplitudes)/Gen 5d
  7f SCF=(maxcycles=300) Integral(NoXCTest) MaxDisk=500GB Pop=Regular P
 seudo=Read Guess=Read IOp(5/15=2)
 ----------------------------------------------------------------------

 ---
 ScO
 ---
 Symbolic Z-matrix:
 Charge =  0 Multiplicity = 2

                         Standard orientation:
 ---------------------------------------------------------------------
 Center     Atomic      Atomic             Coordinates (Angstroms)
 Number     Number       Type             X           Y           Z
 ---------------------------------------------------------------------
      1         21           0        0.000000    0.000000    0.358621
      2          8           0        0.000000    0.000000   -0.941379
 ---------------------------------------------------------------------

 SCF Done:  E(ROHF) =  -61.8022661196     A.U. after   19 cycles
 E2 =    -0.6653599779D+00 EUMP2 =    -0.62467626097508D+02
 CCSD(T)
 CCSD(T)= -0.62496578023D+02

 The electronic state is 2-SG.
 Alpha  occ. eigenvalues --   -2.58819  -1.76368  -1.52597  -1.52597  -1.06708
 Alpha  occ. eigenvalues --   -0.57899  -0.57899  -0.47256  -0.19430
 Alpha virt. eigenvalues --    0.00995   0.00995   0.02037   0.02503   0.03783
 Alpha virt. eigenvalues --    0.03783   0.03799   0.03799   0.03902   0.04784
 Alpha virt. eigenvalues --    0.04784   0.07345   0.10855   0.10855   0.11011

 Mulliken charges and spin densities:
               1          2
     1  Sc   1.187717   1.006249
     2  O   -1.187717  -0.006249
 Sum of Mulliken charges =  -0.00000   1.00000

 Dipole moment (field-independent basis, Debye):
    X=              0.0000    Y=              0.0000    Z=              0.1701  Tot=              0.1701
 Quadrupole moment (field-independent basis, Debye-Ang):
   XX=            -22.7632   YY=            -22.7632   ZZ=            -29.5395
   XY=              0.0000   XZ=              0.0000   YZ=              0.0000

 \\#P ROCCSD(T)=(maxcyc=150, Full, SaveAmplitudes, ReadAmplitudes)/Gen
 77\CCSD=-62.4665053\CCSD(T)=-62.496578\RMSD=1.661e-09\PG=C*V [C*(O1Sc1
 Normal termination of Gaussian 16 at Wed Mar  7 11:43:37 2018.
