 Gaussian 16, Revision A.03,
 Gaussian 16:  ES64L-G16RevA.03 25-Dec-2016

 ----------------------------------------------------------------------
 #P ROCCSD(T)=(maxcyc=150, Full, SaveAmplitudes, ReadAmplitudes)/Gen 5d
  7f SCF=(maxcycles=300) Integral(NoXCTest) MaxDisk=500GB Pop=Regular P
 seudo=Read Guess=Read
 ----------------------------------------------------------------------

 ---
 CrO
 ---
 Symbolic Z-matrix:
 Charge =  0 Multiplicity = 5

                         Standard orientation:
 ---------------------------------------------------------------------
 Center     Atomic      Atomic             Coordinates (Angstroms)
 Number     Number       Type             X           Y           Z
 ---------------------------------------------------------------------
      1         24           0        0.000000    0.000000    0.300000
      2          8           0        0.000000    0.000000   -0.900000
 ---------------------------------------------------------------------

 SCF Done:  E(ROHF) =  -101.768131517     A.U. after   25 cycles
 E2 =    -0.9450411582D+00 EUMP2 =    -0.10271317267555D+03
 CCSD(T)
 CCSD(T)= -0.10271715908D+03

 Unable to determine electronic state:  an orbital has unidentified symmetry.
 Alpha  occ. eigenvalues --   -3.68075  -2.46857  -2.43341  -2.39524  -1.25349
 Alpha  occ. eigenvalues --   -0.74562  -0.68815  -0.65400  -0.50287  -0.50192
 Alpha  occ. eigenvalues --   -0.30321  -0.26573
 Alpha virt. eigenvalues --    0.01365   0.02083   0.02566   0.02591   0.04795
 Alpha virt. eigenvalues --    0.05032   0.05466   0.05471   0.05513   0.05602
 Alpha virt. eigenvalues --    0.08594   0.08831   0.10267   0.13856   0.14897

 Mulliken charges and spin densities:
               1          2
     1  Cr   0.811454   3.850621
     2  O   -0.811454   0.149379
 Sum of Mulliken charges =  -0.00000   4.00000

 Dipole moment (field-independent basis, Debye):
    X=              0.0000    Y=              0.0000    Z=              0.2613  Tot=              0.2613
 Quadrupole moment (field-independent basis, Debye-Ang):
   XX=            -22.7707   YY=            -19.8220   ZZ=            -22.7565
   XY=              0.0000   XZ=              0.0000   YZ=              0.0000

 \\#P ROCCSD(T)=(maxcyc=150, Full, SaveAmplitudes, ReadAmplitudes)/Gen
 MP2-0=-102.7131727\CCSD=-102.6751997\CCSD(T)=-102.7171591\RMSD=2.256e-
 Normal termination of Gaussian 16 at Mon Mar 12 16:03:31 2018.
