 Gaussian 16, Revision A.03,
 Gaussian 16:  ES64L-G16RevA.03 25-Dec-2016

 ----------------------------------------------------------------------
 #P ROCCSD(T)=(maxcyc=150, Full, SaveAmplitudes, ReadAmplitudes)/Gen 5d
  7f SCF=(maxcycles=300) Integral(NoXCTest) MaxDisk=500GB Pop=Regular P
 seudo=Read Guess=Read IOp(5/15=2)
 ----------------------------------------------------------------------

 ---
 ScO
 ---
 Symbolic Z-matrix:
 Charge =  0 Multiplicity = 2

                         Standard orientation:
 ---------------------------------------------------------------------
 Center     Atomic      Atomic             Coordinates (Angstroms)
 Number     Number       Type             X           Y           Z
 ---------------------------------------------------------------------
      1         21           0        0.000000    0.000000    0.496552
      2          8           0        0.000000    0.000000   -1.303448
 ---------------------------------------------------------------------

 SCF Done:  E(ROHF) =  -61.9485354270     A.U. after   17 cycles
 E2 =    -0.6863357187D+00 EUMP2 =    -0.62634871145710D+02
 CCSD(T)
 CCSD(T)= -0.62666260528D+02

 The electronic state is 2-SG.
 Alpha  occ. eigenvalues --   -2.69214  -1.67456  -1.66325  -1.66325  -1.12015
 Alpha  occ. eigenvalues --   -0.41545  -0.38592  -0.38592  -0.26424
 Alpha virt. eigenvalues --   -0.00438  -0.00438   0.01187   0.02121   0.03284
 Alpha virt. eigenvalues --    0.03284   0.03488   0.03488   0.04253   0.04253
 Alpha virt. eigenvalues --    0.04396   0.04988   0.07084   0.07084   0.10238

 Mulliken charges and spin densities:
               1          2
     1  Sc   1.232863   0.976127
     2  O   -1.232863   0.023873
 Sum of Mulliken charges =  -0.00000   1.00000

 Dipole moment (field-independent basis, Debye):
    X=              0.0000    Y=              0.0000    Z=              5.7740  Tot=              5.7740
 Quadrupole moment (field-independent basis, Debye-Ang):
   XX=            -21.8936   YY=            -21.8936   ZZ=            -33.3460
   XY=              0.0000   XZ=              0.0000   YZ=              0.0000

 \\#P ROCCSD(T)=(maxcyc=150, Full, SaveAmplitudes, ReadAmplitudes)/Gen
 7\CCSD=-62.6225431\CCSD(T)=-62.6662605\RMSD=2.581e-09\PG=C*V [C*(O1Sc1
 Normal termination of Gaussian 16 at Mon Mar  5 18:25:16 2018.
