 Gaussian 16, Revision A.03,
 Gaussian 16:  ES64L-G16RevA.03 25-Dec-2016

 ----------------------------------------------------------------------
 #P ROCCSD(T)=(maxcyc=150, Full)/Gen 5d 7f SCF=(maxcycles=300) Integral
 (NoXCTest) MaxDisk=500GB Pop=Regular Pseudo=Read Guess=Read
 ----------------------------------------------------------------------

 ---
 ScH
 ---
 Symbolic Z-matrix:
 Charge =  0 Multiplicity = 1

                         Standard orientation:
 ---------------------------------------------------------------------
 Center     Atomic      Atomic             Coordinates (Angstroms)
 Number     Number       Type             X           Y           Z
 ---------------------------------------------------------------------
      1         21           0        0.000000    0.000000    0.081818
      2          1           0        0.000000    0.000000   -1.718182
 ---------------------------------------------------------------------

 SCF Done:  E(ROHF) =  -46.6619586256     A.U. after    9 cycles
 E2 =    -0.4295668675D+00 EUMP2 =    -0.47091525493129D+02
 CCSD(T)
 CCSD(T)= -0.47133547989D+02

 The electronic state is 1-SG.
 Alpha  occ. eigenvalues --   -2.68872  -1.66583  -1.66583  -1.66555  -0.40471
 Alpha  occ. eigenvalues --   -0.23243
 Alpha virt. eigenvalues --    0.01095   0.01095   0.01420   0.01707   0.02594
 Alpha virt. eigenvalues --    0.02594   0.02659   0.02659   0.02696   0.03914
 Alpha virt. eigenvalues --    0.04014   0.04014   0.06829   0.06829   0.06986

 Mulliken charges and spin densities:
               1          2
     1  Sc   0.375193   0.000000
     2  H   -0.375193   0.000000
 Sum of Mulliken charges =  -0.00000   0.00000

 Dipole moment (field-independent basis, Debye):
    X=              0.0000    Y=              0.0000    Z=              1.5096  Tot=              1.5096
 Quadrupole moment (field-independent basis, Debye-Ang):
   XX=            -23.0399   YY=            -23.0399   ZZ=            -26.7799
   XY=              0.0000   XZ=              0.0000   YZ=              0.0000

 P ROCCSD(T)=(maxcyc=150, Full)/Gen 5d 7f SCF=(maxcycles=300) Integral(
 915255\MP4SDQ=-47.1136382\CCSD=-47.1137028\CCSD(T)=-47.133548\RMSD=1.6
 Normal termination of Gaussian 16 at Tue Feb 13 06:02:33 2018.
