 Gaussian 16, Revision A.03,
 Gaussian 16:  ES64L-G16RevA.03 25-Dec-2016

 ----------------------------------------------------------------------
 #P ROCCSD(T)=(MaxCyc=150, Full)/Gen SCF=(maxcycle=400, vshift=200) Int
 egral(DKHSO, NoXCTest) Pop=Regular MaxDisk=500GB Guess=Read IOp(5/15=2
 )
 ----------------------------------------------------------------------

 ---
 CoH
 ---
 Symbolic Z-matrix:
 Charge =  0 Multiplicity = 3

                         Standard orientation:
 ---------------------------------------------------------------------
 Center     Atomic      Atomic             Coordinates (Angstroms)
 Number     Number       Type             X           Y           Z
 ---------------------------------------------------------------------
      1         27           0        0.000000    0.000000    0.057143
      2          1           0        0.000000    0.000000   -1.542857
 ---------------------------------------------------------------------

 SCF Done:  E(ROHF) =  -1392.36213938     A.U. after   33 cycles
 E2 =    -0.1326875278D+01 EUMP2 =    -0.13936890146592D+04
 CCSD(T)
 CCSD(T)= -0.13936478293D+04

 Unable to determine electronic state:  partially filled degenerate orbitals.
 Alpha  occ. eigenvalues -- -285.58670 -35.27774 -30.04866 -30.04866 -30.04590
 Alpha  occ. eigenvalues --   -4.49448  -2.93207  -2.93207  -2.93162  -0.48972
 Alpha  occ. eigenvalues --   -0.48746  -0.44256  -0.43930  -0.43930  -0.32745
 Alpha virt. eigenvalues --   -0.00145   0.02406   0.02406   0.03070   0.04550
 Alpha virt. eigenvalues --    0.06991   0.07318   0.07332   0.07559   0.07559
 Alpha virt. eigenvalues --    0.08608   0.08608   0.10107   0.18166   0.19919

 Mulliken charges and spin densities:
               1          2
     1  Co   0.348051   1.994257
     2  H   -0.348051   0.005743
 Sum of Mulliken charges =  -0.00000   2.00000

 Dipole moment (field-independent basis, Debye):
    X=              0.0000    Y=              0.0000    Z=              4.4848  Tot=              4.4848
 Quadrupole moment (field-independent basis, Debye-Ang):
   XX=            -14.1745   YY=            -14.1745   ZZ=            -18.4789
   XY=              0.0000   XZ=              0.0000   YZ=              0.0000

 \\#P ROCCSD(T)=(MaxCyc=150, Full)/Gen SCF=(maxcycle=400, vshift=200) I
 PMP2-0=-1393.6890147\MP4SDQ=-1393.644\CCSD=-1393.6143783\CCSD(T)=-1393
 Normal termination of Gaussian 16 at Sat Apr 21 22:58:36 2018.
