 Gaussian 16, Revision A.03,
 Gaussian 16:  ES64L-G16RevA.03 25-Dec-2016

 ----------------------------------------------------------------------
 #P ROCCSD(T)=(maxcyc=150, Full, SaveAmplitudes, ReadAmplitudes)/Gen 5d
  7f SCF=(maxcycles=300) Integral(NoXCTest) MaxDisk=500GB Pop=Regular P
 seudo=Read Guess=Read IOp(5/15=2)
 ----------------------------------------------------------------------

 ---
 ScO
 ---
 Symbolic Z-matrix:
 Charge =  0 Multiplicity = 2

                         Standard orientation:
 ---------------------------------------------------------------------
 Center     Atomic      Atomic             Coordinates (Angstroms)
 Number     Number       Type             X           Y           Z
 ---------------------------------------------------------------------
      1         21           0        0.000000    0.000000    0.441379
      2          8           0        0.000000    0.000000   -1.158621
 ---------------------------------------------------------------------

 SCF Done:  E(ROHF) =  -61.9548448791     A.U. after   17 cycles
 E2 =    -0.6806365512D+00 EUMP2 =    -0.62635481430297D+02
 CCSD(T)
 CCSD(T)= -0.62664130886D+02

 The electronic state is 2-SG.
 Alpha  occ. eigenvalues --   -2.63587  -1.66570  -1.60576  -1.60576  -1.12586
 Alpha  occ. eigenvalues --   -0.44190  -0.44190  -0.43895  -0.23982
 Alpha virt. eigenvalues --    0.00312   0.00312   0.01696   0.02290   0.03649
 Alpha virt. eigenvalues --    0.03649   0.03751   0.03751   0.04198   0.04198
 Alpha virt. eigenvalues --    0.04258   0.06025   0.09003   0.09003   0.10734

 Mulliken charges and spin densities:
               1          2
     1  Sc   1.275754   0.974985
     2  O   -1.275754   0.025015
 Sum of Mulliken charges =  -0.00000   1.00000

 Dipole moment (field-independent basis, Debye):
    X=              0.0000    Y=              0.0000    Z=              3.8594  Tot=              3.8594
 Quadrupole moment (field-independent basis, Debye-Ang):
   XX=            -21.8752   YY=            -21.8752   ZZ=            -31.7795
   XY=              0.0000   XZ=              0.0000   YZ=              0.0000

 \\#P ROCCSD(T)=(maxcyc=150, Full, SaveAmplitudes, ReadAmplitudes)/Gen
 7\CCSD=-62.6262337\CCSD(T)=-62.6641309\RMSD=1.397e-09\PG=C*V [C*(O1Sc1
 Normal termination of Gaussian 16 at Tue Mar 13 21:59:25 2018.
