 Gaussian 16, Revision A.03,
 Gaussian 16:  ES64L-G16RevA.03 25-Dec-2016

 ----------------------------------------------------------------------
 #P ROCCSD(T)=(MaxCyc=150, Full)/Gen SCF=(maxcycle=400) Pseudo=Read Int
 egral(NoXCTest) Pop=Regular MaxDisk=500GB Guess=Read IOp(5/15=2)
 ----------------------------------------------------------------------

 ---
 ZnO
 ---
 Symbolic Z-matrix:
 Charge =  0 Multiplicity = 1

                         Standard orientation:
 ---------------------------------------------------------------------
 Center     Atomic      Atomic             Coordinates (Angstroms)
 Number     Number       Type             X           Y           Z
 ---------------------------------------------------------------------
      1         30           0        0.000000    0.000000    0.273684
      2          8           0        0.000000    0.000000   -1.026316
 ---------------------------------------------------------------------

 SCF Done:  E(ROHF) =  -241.468593890     A.U. after   11 cycles
 E2 =    -0.1426963940D+01 EUMP2 =    -0.24289555783069D+03
 CCSD(T)
 CCSD(T)= -0.24281727862D+03

 The electronic state is 1-SG.
 Alpha  occ. eigenvalues --   -5.95746  -4.04691  -4.01624  -4.01624  -1.29566
 Alpha  occ. eigenvalues --   -0.89022  -0.89022  -0.83715  -0.83715  -0.79976
 Alpha  occ. eigenvalues --   -0.43159  -0.43159  -0.39010
 Alpha virt. eigenvalues --   -0.02393   0.02805   0.02805   0.03270   0.04022
 Alpha virt. eigenvalues --    0.09078   0.09078   0.12439   0.17090   0.17927
 Alpha virt. eigenvalues --    0.18412   0.18412   0.19484   0.19484   0.23109

 Mulliken charges and spin densities:
               1          2
     1  Zn   1.067809   0.000000
     2  O   -1.067809   0.000000
 Sum of Mulliken charges =  -0.00000   0.00000

 Dipole moment (field-independent basis, Debye):
    X=              0.0000    Y=              0.0000    Z=              5.6306  Tot=              5.6306
 Quadrupole moment (field-independent basis, Debye-Ang):
   XX=            -17.9107   YY=            -17.9107   ZZ=            -19.5332
   XY=              0.0000   XZ=              0.0000   YZ=              0.0000

 P ROCCSD(T)=(MaxCyc=150, Full)/Gen SCF=(maxcycle=400) Pseudo=Read Inte
 2-0=-242.8955578\MP4SDQ=-242.8168106\CCSD=-242.7666867\CCSD(T)=-242.81
 Normal termination of Gaussian 16 at Wed Mar 28 02:35:02 2018.
