 Gaussian 16, Revision A.03,
 Gaussian 16:  ES64L-G16RevA.03 25-Dec-2016

 ----------------------------------------------------------------------
 #P ROCCSD(T)=(MaxCyc=150, Full)/Gen SCF=(maxcycle=400) Pseudo=Read Int
 egral(NoXCTest) Pop=Regular MaxDisk=500GB Guess=Read IOp(5/15=2)
 ----------------------------------------------------------------------

 ---
 ZnO
 ---
 Symbolic Z-matrix:
 Charge =  0 Multiplicity = 1

                         Standard orientation:
 ---------------------------------------------------------------------
 Center     Atomic      Atomic             Coordinates (Angstroms)
 Number     Number       Type             X           Y           Z
 ---------------------------------------------------------------------
      1         30           0        0.000000    0.000000    0.273684
      2          8           0        0.000000    0.000000   -1.026316
 ---------------------------------------------------------------------

 SCF Done:  E(ROHF) =  -241.464490843     A.U. after    1 cycles
 E2 =    -0.1358223248D+01 EUMP2 =    -0.24282271409049D+03
 CCSD(T)
 CCSD(T)= -0.24274672852D+03

 The electronic state is 1-SG.
 Alpha  occ. eigenvalues --   -5.95763  -4.04723  -4.01643  -4.01643  -1.29634
 Alpha  occ. eigenvalues --   -0.89030  -0.89030  -0.83724  -0.83724  -0.79998
 Alpha  occ. eigenvalues --   -0.43150  -0.43150  -0.39030
 Alpha virt. eigenvalues --   -0.02400   0.03124   0.03124   0.03571   0.04404
 Alpha virt. eigenvalues --    0.10446   0.10446   0.13645   0.18857   0.21357
 Alpha virt. eigenvalues --    0.22664   0.22664   0.25456   0.25456   0.30674

 Mulliken charges and spin densities:
               1          2
     1  Zn   1.309652   0.000000
     2  O   -1.309652   0.000000
 Sum of Mulliken charges =   0.00000   0.00000

 Dipole moment (field-independent basis, Debye):
    X=              0.0000    Y=              0.0000    Z=              5.6443  Tot=              5.6443
 Quadrupole moment (field-independent basis, Debye-Ang):
   XX=            -17.9202   YY=            -17.9202   ZZ=            -19.5422
   XY=              0.0000   XZ=              0.0000   YZ=              0.0000

 P ROCCSD(T)=(MaxCyc=150, Full)/Gen SCF=(maxcycle=400) Pseudo=Read Inte
 2-0=-242.8227141\MP4SDQ=-242.7499609\CCSD=-242.6987427\CCSD(T)=-242.74
 Normal termination of Gaussian 16 at Wed Mar 28 00:17:17 2018.
