 Gaussian 16, Revision A.03,
 Gaussian 16:  ES64L-G16RevA.03 25-Dec-2016

 ----------------------------------------------------------------------
 #P ROCCSD(T)=(maxcyc=150, Full, SaveAmplitudes, ReadAmplitudes)/Gen 5d
  7f SCF=(maxcycles=300) Integral(NoXCTest) MaxDisk=500GB Pop=Regular P
 seudo=Read Guess=Read IOp(5/15=2)
 ----------------------------------------------------------------------

 ---
 CrH
 ---
 Symbolic Z-matrix:
 Charge =  0 Multiplicity = 6

                         Standard orientation:
 ---------------------------------------------------------------------
 Center     Atomic      Atomic             Coordinates (Angstroms)
 Number     Number       Type             X           Y           Z
 ---------------------------------------------------------------------
      1         24           0        0.000000    0.000000    0.044000
      2          1           0        0.000000    0.000000   -1.056000
 ---------------------------------------------------------------------

 SCF Done:  E(ROHF) =  -86.7212130402     A.U. after   46 cycles
 E2 =    -0.6014141189D+00 EUMP2 =    -0.87322627159076D+02
 CCSD(T)
 CCSD(T)= -0.87337702155D+02

 The electronic state is 6-SG.
 Alpha  occ. eigenvalues --   -3.64222  -2.34184  -2.33609  -2.33609  -0.48133
 Alpha  occ. eigenvalues --   -0.43807  -0.43807  -0.40908  -0.40908  -0.25163
 Alpha virt. eigenvalues --    0.01696   0.01896   0.01896   0.02445   0.06323
 Alpha virt. eigenvalues --    0.06525   0.06525   0.07931   0.07931   0.07962
 Alpha virt. eigenvalues --    0.08117   0.08117   0.09838   0.20259   0.22656

 Mulliken charges and spin densities:
               1          2
     1  Cr   0.566875   5.004191
     2  H   -0.566875  -0.004191
 Sum of Mulliken charges =   0.00000   5.00000

 Dipole moment (field-independent basis, Debye):
    X=              0.0000    Y=              0.0000    Z=              2.1285  Tot=              2.1285
 Quadrupole moment (field-independent basis, Debye-Ang):
   XX=            -16.3893   YY=            -16.3893   ZZ=            -17.8207
   XY=              0.0000   XZ=              0.0000   YZ=              0.0000

 \\#P ROCCSD(T)=(maxcyc=150, Full, SaveAmplitudes, ReadAmplitudes)/Gen
 CCSD=-87.3164575\CCSD(T)=-87.3377022\RMSD=8.613e-09\PG=C*V [C*(H1Cr1)]
 Normal termination of Gaussian 16 at Sun Feb 25 19:36:35 2018.
