 Gaussian 16, Revision A.03,
 Gaussian 16:  ES64L-G16RevA.03 25-Dec-2016

 ----------------------------------------------------------------------
 #P ROCCSD(T)=(maxcyc=150, Full)/Gen 5d 7f SCF=(maxcycles=300) Integral
 (NoXCTest) MaxDisk=500GB Pop=Regular Pseudo=Read IOp(5/15=2) Guess=Rea
 d
 ----------------------------------------------------------------------

 ---
 ScH
 ---
 Symbolic Z-matrix:
 Charge =  0 Multiplicity = 1

                         Standard orientation:
 ---------------------------------------------------------------------
 Center     Atomic      Atomic             Coordinates (Angstroms)
 Number     Number       Type             X           Y           Z
 ---------------------------------------------------------------------
      1         21           0        0.000000    0.000000    0.090909
      2          1           0        0.000000    0.000000   -1.909091
 ---------------------------------------------------------------------

 SCF Done:  E(ROHF) =  -46.7836930135     A.U. after    9 cycles
 E2 =    -0.4306454432D+00 EUMP2 =    -0.47214338456676D+02
 CCSD(T)
 CCSD(T)= -0.47258322593D+02

 The electronic state is 1-SG.
 Alpha  occ. eigenvalues --   -2.77413  -1.67831  -1.67831  -1.67621  -0.38153
 Alpha  occ. eigenvalues --   -0.23938
 Alpha virt. eigenvalues --    0.00949   0.00949   0.01278   0.01782   0.02571
 Alpha virt. eigenvalues --    0.02571   0.02674   0.02674   0.02729   0.03671
 Alpha virt. eigenvalues --    0.03820   0.03820   0.06357   0.06357   0.07022

 Mulliken charges and spin densities:
               1          2
     1  Sc   0.364020   0.000000
     2  H   -0.364020   0.000000
 Sum of Mulliken charges =   0.00000   0.00000

 Dipole moment (field-independent basis, Debye):
    X=              0.0000    Y=              0.0000    Z=              2.0961  Tot=              2.0961
 Quadrupole moment (field-independent basis, Debye-Ang):
   XX=            -22.9386   YY=            -22.9386   ZZ=            -28.5576
   XY=              0.0000   XZ=              0.0000   YZ=              0.0000

 P ROCCSD(T)=(maxcyc=150, Full)/Gen 5d 7f SCF=(maxcycles=300) Integral(
 2-0=-47.2143385\MP4SDQ=-47.2374044\CCSD=-47.2379501\CCSD(T)=-47.258322
 Normal termination of Gaussian 16 at Wed Feb 14 09:48:02 2018.
