 Gaussian 16, Revision A.03,
 Gaussian 16:  ES64L-G16RevA.03 25-Dec-2016

 ----------------------------------------------------------------------
 #P ROCCSD(T)=(maxcyc=150, Full)/Gen 5d 7f SCF=(maxcycles=300) Integral
 (NoXCTest) MaxDisk=500GB Pop=Regular Pseudo=Read IOp(5/15=2) Guess=Rea
 d
 ----------------------------------------------------------------------

 ---
 ScH
 ---
 Symbolic Z-matrix:
 Charge =  0 Multiplicity = 1

                         Standard orientation:
 ---------------------------------------------------------------------
 Center     Atomic      Atomic             Coordinates (Angstroms)
 Number     Number       Type             X           Y           Z
 ---------------------------------------------------------------------
      1         21           0        0.000000    0.000000    0.081818
      2          1           0        0.000000    0.000000   -1.718182
 ---------------------------------------------------------------------

 SCF Done:  E(ROHF) =  -46.5983234265     A.U. after    9 cycles
 E2 =    -0.4281872323D+00 EUMP2 =    -0.47026510658792D+02
 CCSD(T)
 CCSD(T)= -0.47067899414D+02

 The electronic state is 1-SG.
 Alpha  occ. eigenvalues --   -2.69675  -1.66557  -1.66557  -1.66540  -0.40450
 Alpha  occ. eigenvalues --   -0.23241
 Alpha virt. eigenvalues --    0.01106   0.01106   0.01416   0.01708   0.02594
 Alpha virt. eigenvalues --    0.02594   0.02659   0.02659   0.02697   0.03918
 Alpha virt. eigenvalues --    0.04032   0.04032   0.06822   0.06822   0.06990

 Mulliken charges and spin densities:
               1          2
     1  Sc   0.380989   0.000000
     2  H   -0.380989   0.000000
 Sum of Mulliken charges =  -0.00000   0.00000

 Dipole moment (field-independent basis, Debye):
    X=              0.0000    Y=              0.0000    Z=              1.5248  Tot=              1.5248
 Quadrupole moment (field-independent basis, Debye-Ang):
   XX=            -23.0798   YY=            -23.0798   ZZ=            -26.7757
   XY=              0.0000   XZ=              0.0000   YZ=              0.0000

 P ROCCSD(T)=(maxcyc=150, Full)/Gen 5d 7f SCF=(maxcycles=300) Integral(
 PMP2-0=-47.0265107\MP4SDQ=-47.0481277\CCSD=-47.0481864\CCSD(T)=-47.067
 Normal termination of Gaussian 16 at Wed Feb 14 06:20:37 2018.
