 Gaussian 16, Revision A.03,
 Gaussian 16:  ES64L-G16RevA.03 25-Dec-2016

 ----------------------------------------------------------------------
 #P ROHF/Gen 5d 7f SCF=(maxcycles=300) Integral(NoXCTest) MaxDisk=500GB
  Pop=Regular Pseudo=Read
 ----------------------------------------------------------------------

 ---
 MnH
 ---
 Symbolic Z-matrix:
 Charge =  0 Multiplicity = 7

                         Standard orientation:
 ---------------------------------------------------------------------
 Center     Atomic      Atomic             Coordinates (Angstroms)
 Number     Number       Type             X           Y           Z
 ---------------------------------------------------------------------
      1         25           0        0.000000    0.000000    0.065385
      2          1           0        0.000000    0.000000   -1.634615
 ---------------------------------------------------------------------

 SCF Done:  E(ROHF) =  -104.251811157     A.U. after   24 cycles

 The electronic state is 7-SG.
 Alpha  occ. eigenvalues --   -3.79904  -2.40320  -2.40320  -2.39632  -0.40176
 Alpha  occ. eigenvalues --   -0.09610  -0.09610  -0.09116  -0.09046  -0.09046
 Alpha  occ. eigenvalues --   -0.05624
 Alpha virt. eigenvalues --    0.01843   0.01843   0.02417   0.03227   0.06628
 Alpha virt. eigenvalues --    0.06628   0.08577   0.08577   0.08636   0.09089
 Alpha virt. eigenvalues --    0.09089   0.09895   0.14677   0.20286   0.23754

 Mulliken charges and spin densities:
               1          2
     1  Mn   0.432568   5.961977
     2  H   -0.432568   0.038023
 Sum of Mulliken charges =  -0.00000   6.00000

 Dipole moment (field-independent basis, Debye):
    X=              0.0000    Y=              0.0000    Z=              1.2818  Tot=              1.2818
 Quadrupole moment (field-independent basis, Debye-Ang):
   XX=            -16.0672   YY=            -16.0672   ZZ=            -26.1901
   XY=              0.0000   XZ=              0.0000   YZ=              0.0000

 Normal termination of Gaussian 16 at Sun Feb 25 17:18:05 2018.
