 Gaussian 16, Revision A.03,
 Gaussian 16:  ES64L-G16RevA.03 25-Dec-2016

 ----------------------------------------------------------------------
 #P ROCCSD(T)=(maxcyc=150, Full, SaveAmplitudes, ReadAmplitudes)/Gen 5d
  7f SCF=(maxcycles=300) Integral(NoXCTest) MaxDisk=500GB Pop=Regular P
 seudo=Read Guess=Read IOp(5/15=2)
 ----------------------------------------------------------------------

 ---
 MnH
 ---
 Symbolic Z-matrix:
 Charge =  0 Multiplicity = 7

                         Standard orientation:
 ---------------------------------------------------------------------
 Center     Atomic      Atomic             Coordinates (Angstroms)
 Number     Number       Type             X           Y           Z
 ---------------------------------------------------------------------
      1         25           0        0.000000    0.000000    0.065385
      2          1           0        0.000000    0.000000   -1.634615
 ---------------------------------------------------------------------

 SCF Done:  E(ROHF) =  -104.251811157     A.U. after    1 cycles
 E2 =    -0.5855854361D+00 EUMP2 =    -0.10483739659291D+03
 CCSD(T)
 CCSD(T)= -0.10486082333D+03

 The electronic state is 7-SG.
 Alpha  occ. eigenvalues --   -4.09916  -2.76082  -2.76082  -2.75997  -0.64092
 Alpha  occ. eigenvalues --   -0.64092  -0.63880  -0.63393  -0.63393  -0.40818
 Alpha  occ. eigenvalues --   -0.26283
 Alpha virt. eigenvalues --    0.01211   0.01211   0.02328   0.03131   0.05662
 Alpha virt. eigenvalues --    0.05662   0.08308   0.08476   0.08476   0.08946
 Alpha virt. eigenvalues --    0.08946   0.09769   0.13913   0.19735   0.22480

 Mulliken charges and spin densities:
               1          2
     1  Mn   0.432568   5.961977
     2  H   -0.432568   0.038023
 Sum of Mulliken charges =   0.00000   6.00000

 Dipole moment (field-independent basis, Debye):
    X=              0.0000    Y=              0.0000    Z=              1.2818  Tot=              1.2818
 Quadrupole moment (field-independent basis, Debye-Ang):
   XX=            -16.0672   YY=            -16.0672   ZZ=            -26.1901
   XY=              0.0000   XZ=              0.0000   YZ=              0.0000

 \\#P ROCCSD(T)=(maxcyc=150, Full, SaveAmplitudes, ReadAmplitudes)/Gen
 .8439767\CCSD=-104.8447244\CCSD(T)=-104.8608233\RMSD=8.925e-09\PG=C*V
 Normal termination of Gaussian 16 at Mon Feb 26 09:56:12 2018.
