 Gaussian 16, Revision A.03,
 Gaussian 16:  ES64L-G16RevA.03 25-Dec-2016

 ----------------------------------------------------------------------
 #P ROCCSD(T)=(maxcyc=150, Full, SaveAmplitudes, ReadAmplitudes)/Gen 5d
  7f SCF=(maxcycles=300) Integral(NoXCTest) MaxDisk=500GB Pop=Regular P
 seudo=Read Guess=Read IOp(5/15=2)
 ----------------------------------------------------------------------

 ---
 TiO
 ---
 Symbolic Z-matrix:
 Charge =  0 Multiplicity = 3

                         Standard orientation:
 ---------------------------------------------------------------------
 Center     Atomic      Atomic             Coordinates (Angstroms)
 Number     Number       Type             X           Y           Z
 ---------------------------------------------------------------------
      1         22           0        0.000000    0.000000    0.346667
      2          8           0        0.000000    0.000000   -0.953333
 ---------------------------------------------------------------------

 SCF Done:  E(ROHF) =  -73.3825056663     A.U. after   23 cycles
 E2 =    -0.7392368384D+00 EUMP2 =    -0.74121742504682D+02
 CCSD(T)
 CCSD(T)= -0.74147297101D+02

 Unable to determine electronic state:  an orbital has unidentified symmetry.
 Alpha  occ. eigenvalues --   -2.97235  -1.94502  -1.81035  -1.81035  -1.14596
 Alpha  occ. eigenvalues --   -0.59013  -0.59013  -0.52258  -0.35260  -0.21750
 Alpha virt. eigenvalues --    0.01180   0.01180   0.02319   0.02548   0.04797
 Alpha virt. eigenvalues --    0.04797   0.05012   0.05166   0.05329   0.05793
 Alpha virt. eigenvalues --    0.05793   0.08517   0.11824   0.13800   0.14604

 Mulliken charges and spin densities:
               1          2
     1  Ti   0.730902   2.039591
     2  O   -0.730902  -0.039591
 Sum of Mulliken charges =  -0.00000   2.00000

 Dipole moment (field-independent basis, Debye):
    X=              0.0000    Y=              0.0000    Z=              0.6664  Tot=              0.6664
 Quadrupole moment (field-independent basis, Debye-Ang):
   XX=            -21.9484   YY=            -21.9484   ZZ=            -27.0801
   XY=              0.0000   XZ=              0.0000   YZ=              0.0000

 \\#P ROCCSD(T)=(maxcyc=150, Full, SaveAmplitudes, ReadAmplitudes)/Gen
 .1126111\CCSD(T)=-74.1472971\RMSD=9.793e-09\PG=C*V [C*(O1Ti1)]\\@
 Normal termination of Gaussian 16 at Mon Mar 12 23:48:40 2018.
