 Gaussian 16, Revision A.03,
 Gaussian 16:  ES64L-G16RevA.03 25-Dec-2016

 ----------------------------------------------------------------------
 #P ROCCSD(T)=(maxcyc=150, FrzINGC)/Gen 5d 7f SCF=(maxcycles=300, VShif
 t=300) Integral(NoXCTest, DKHSO) MaxDisk=100GB Pop=Regular Guess=Permu
 te IOp(5/15=2)
 ----------------------------------------------------------------------

 --
 Mn
 --
 Symbolic Z-matrix:
 Charge =  0 Multiplicity = 6

                         Standard orientation:
 ---------------------------------------------------------------------
 Center     Atomic      Atomic             Coordinates (Angstroms)
 Number     Number       Type             X           Y           Z
 ---------------------------------------------------------------------
      1         25           0        0.000000    0.000000    0.000000
 ---------------------------------------------------------------------

 SCF Done:  E(ROHF) =  -1157.39008566     A.U. after   28 cycles
 E2 =    -0.5540809462D+00 EUMP2 =    -0.11579441666044D+04
 CCSD(T)
 CCSD(T)= -0.11579584877D+04

 The electronic state is 6-A1G.
 Alpha  occ. eigenvalues -- -242.48899 -29.59078 -24.94495 -24.94495 -24.94495
 Alpha  occ. eigenvalues --   -4.08034  -2.73266  -2.73266  -2.73266  -0.62572
 Alpha  occ. eigenvalues --   -0.62572  -0.62572  -0.62572  -0.62572  -0.26785
 Alpha virt. eigenvalues --    0.01846   0.01846   0.01846   0.02666   0.06594
 Alpha virt. eigenvalues --    0.06594   0.06594   0.08967   0.08967   0.08967
 Alpha virt. eigenvalues --    0.08967   0.08967   0.13922   0.24257   0.24257

 Mulliken charges and spin densities:
               1          2
     1  Mn  -0.000000   5.000000
 Sum of Mulliken charges =  -0.00000   5.00000

 Dipole moment (field-independent basis, Debye):
    X=              0.0000    Y=              0.0000    Z=              0.0000  Tot=              0.0000
 Quadrupole moment (field-independent basis, Debye-Ang):
   XX=            -19.1020   YY=            -19.1020   ZZ=            -19.1020
   XY=             -0.0000   XZ=              0.0000   YZ=             -0.0000

 P ROCCSD(T)=(maxcyc=150, FrzINGC)/Gen 5d 7f SCF=(maxcycles=300, VShift
 Q=-1157.9425952\CCSD=-1157.9420011\CCSD(T)=-1157.9584877\RMSD=6.758e-0
 Normal termination of Gaussian 16 at Mon Mar 12 13:05:29 2018.
