 Gaussian 16, Revision A.03,
 Gaussian 16:  ES64L-G16RevA.03 25-Dec-2016

 ----------------------------------------------------------------------
 #P ROCCSD(T)=(maxcyc=150, Full, SaveAmplitudes, ReadAmplitudes)/Gen 5d
  7f SCF=(maxcycles=300) Integral(NoXCTest) MaxDisk=500GB Pop=Regular P
 seudo=Read Guess=Read
 ----------------------------------------------------------------------

 ---
 ScO
 ---
 Symbolic Z-matrix:
 Charge =  0 Multiplicity = 2

                         Standard orientation:
 ---------------------------------------------------------------------
 Center     Atomic      Atomic             Coordinates (Angstroms)
 Number     Number       Type             X           Y           Z
 ---------------------------------------------------------------------
      1         21           0        0.000000    0.000000    0.441379
      2          8           0        0.000000    0.000000   -1.158621
 ---------------------------------------------------------------------

 SCF Done:  E(ROHF) =  -62.0680742590     A.U. after   17 cycles
 E2 =    -0.7079006705D+00 EUMP2 =    -0.62775974929557D+02
 CCSD(T)
 CCSD(T)= -0.62801815056D+02

 The electronic state is 2-SG.
 Alpha  occ. eigenvalues --   -2.66966  -1.66887  -1.60960  -1.60960  -1.12509
 Alpha  occ. eigenvalues --   -0.44066  -0.44066  -0.43809  -0.24109
 Alpha virt. eigenvalues --    0.00306   0.00306   0.01514   0.02096   0.02736
 Alpha virt. eigenvalues --    0.02736   0.03029   0.03029   0.03285   0.03397
 Alpha virt. eigenvalues --    0.03397   0.05165   0.07283   0.07283   0.09318

 Mulliken charges and spin densities:
               1          2
     1  Sc   1.262750   0.989705
     2  O   -1.262750   0.010295
 Sum of Mulliken charges =  -0.00000   1.00000

 Dipole moment (field-independent basis, Debye):
    X=              0.0000    Y=              0.0000    Z=              3.9364  Tot=              3.9364
 Quadrupole moment (field-independent basis, Debye-Ang):
   XX=            -21.8151   YY=            -21.8151   ZZ=            -31.5857
   XY=              0.0000   XZ=              0.0000   YZ=              0.0000

 \\#P ROCCSD(T)=(maxcyc=150, Full, SaveAmplitudes, ReadAmplitudes)/Gen
 680743\PMP2-0=-62.7759749\CCSD=-62.7623968\CCSD(T)=-62.8018151\RMSD=5.
 Normal termination of Gaussian 16 at Tue Feb 27 14:20:34 2018.
