 Gaussian 16, Revision A.03,
 Gaussian 16:  ES64L-G16RevA.03 25-Dec-2016

 ----------------------------------------------------------------------
 #P ROCCSD(T)=(maxcyc=150, Window=(7,0), SaveAmplitudes, ReadAmplitudes
 )/Gen 5d 7f SCF=(maxcycles=300) Integral(NoXCTest, DKHSO) MaxDisk=500G
 B Pop=Regular Guess=Read
 ----------------------------------------------------------------------

 ---
 TiO
 ---
 Symbolic Z-matrix:
 Charge =  0 Multiplicity = 3

                         Standard orientation:
 ---------------------------------------------------------------------
 Center     Atomic      Atomic             Coordinates (Angstroms)
 Number     Number       Type             X           Y           Z
 ---------------------------------------------------------------------
      1         22           0        0.000000    0.000000    0.506667
      2          8           0        0.000000    0.000000   -1.393333
 ---------------------------------------------------------------------

 SCF Done:  E(ROHF) =  -927.655997963     A.U. after   21 cycles
 E2 =    -0.7616606372D+00 EUMP2 =    -0.92841765859984D+03
 CCSD(T)
 CCSD(T)= -0.92844993967D+03

 Unable to determine electronic state:  an orbital has unidentified symmetry.
 Alpha  occ. eigenvalues -- -184.53131 -21.80333 -20.48806 -17.96937 -17.96937
 Alpha  occ. eigenvalues --  -17.96748  -3.05692  -1.96486  -1.96486  -1.92354
 Alpha  occ. eigenvalues --   -1.11020  -0.52261  -0.41442  -0.37331  -0.37331
 Alpha  occ. eigenvalues --   -0.29824
 Alpha virt. eigenvalues --   -0.00947  -0.00947   0.00090   0.01838   0.02867
 Alpha virt. eigenvalues --    0.02867   0.03234   0.03505   0.03672   0.04397
 Alpha virt. eigenvalues --    0.04397   0.04774   0.06525   0.09718   0.09927

 Mulliken charges and spin densities:
               1          2
     1  Ti   1.008244   1.979712
     2  O   -1.008244   0.020288
 Sum of Mulliken charges =  -0.00000   2.00000

 Dipole moment (field-independent basis, Debye):
    X=             -0.0000    Y=              0.0000    Z=              7.0075  Tot=              7.0075
 Quadrupole moment (field-independent basis, Debye-Ang):
   XX=            -22.1528   YY=            -22.1528   ZZ=            -31.2382
   XY=             -0.0000   XZ=             -0.0000   YZ=              0.0000

 1\1\GINC-C479-083\SP\ROCCSD(T)-RW\Gen\O1Ti1(3)\AANNABE\14-Mar-2018\0\\
 #P ROCCSD(T)=(maxcyc=150, Window=(7,0), SaveAmplitudes, ReadAmplitudes
 )/Gen 5d 7f SCF=(maxcycles=300) Integral(NoXCTest, DKHSO) MaxDisk=500G
 B Pop=Regular Guess=Read\\TiO\\0,3\Ti,0,0.,0.,0.\O,0,0.,0.,1.9\\Versio
 n=ES64L-G16RevA.03\HF=-927.655998\MP2=-928.4176586\PUHF=-927.655998\PM
 P2-0=-928.4176586\CCSD=-928.3926668\CCSD(T)=-928.4499397\RMSD=4.750e-1
 0\PG=C*V [C*(O1Ti1)]\\@

 Normal termination of Gaussian 16 at Wed Mar 14 15:13:31 2018.
