 Gaussian 16, Revision A.03,
 Gaussian 16:  ES64L-G16RevA.03 25-Dec-2016

 ----------------------------------------------------------------------
 #P ROCCSD(T)=(maxcyc=150, Full)/Gen 5d 7f SCF=(maxcycles=300, NoVarAcc
 , VShift=300) MaxDisk=100GB Pop=Regular Pseudo=Read Guess=Read IOp(5/1
 5=2)
 ----------------------------------------------------------------------

 --
 Cr
 --
 Symbolic Z-matrix:
 Charge =  0 Multiplicity = 7

                         Standard orientation:
 ---------------------------------------------------------------------
 Center     Atomic      Atomic             Coordinates (Angstroms)
 Number     Number       Type             X           Y           Z
 ---------------------------------------------------------------------
      1         24           0        0.000000    0.000000    0.000000
 ---------------------------------------------------------------------

 SCF Done:  E(ROHF) =  -86.0484051884     A.U. after   31 cycles
 E2 =    -0.5562902022D+00 EUMP2 =    -0.86604695390655D+02
 CCSD(T)
 CCSD(T)= -0.86614779792D+02

 The electronic state is 7-A1G.
 Alpha  occ. eigenvalues --   -3.54677  -2.29877  -2.29877  -2.29877  -0.36974
 Alpha  occ. eigenvalues --   -0.36974  -0.36974  -0.36974  -0.36974  -0.22550
 Alpha virt. eigenvalues --    0.01711   0.01711   0.01711   0.02420   0.05523
 Alpha virt. eigenvalues --    0.05523   0.05523   0.05523   0.05523   0.05931
 Alpha virt. eigenvalues --    0.05931   0.05931   0.12739   0.17949   0.17949

 Mulliken charges and spin densities:
               1          2
     1  Cr  -0.000000   6.000000
 Sum of Mulliken charges =  -0.00000   6.00000

 Dipole moment (field-independent basis, Debye):
    X=              0.0000    Y=              0.0000    Z=              0.0000  Tot=              0.0000
 Quadrupole moment (field-independent basis, Debye-Ang):
   XX=            -16.4512   YY=            -16.4512   ZZ=            -16.4512
   XY=             -0.0000   XZ=              0.0000   YZ=              0.0000

 1\1\GINC-C455-074\SP\ROCCSD(T)-Full\Gen\Cr1(7)\AANNABE\19-Apr-2018\0\\
 #P ROCCSD(T)=(maxcyc=150, Full)/Gen 5d 7f SCF=(maxcycles=300, NoVarAcc
 , VShift=300) MaxDisk=100GB Pop=Regular Pseudo=Read Guess=Read IOp(5/1
 5=2)\\Cr\\0,7\Cr,0,0.,0.,0.\\Version=ES64L-G16RevA.03\State=7-A1G\HF=-
 86.0484052\MP2=-86.6046954\MP3=-86.5948987\PUHF=-86.0484052\PMP2-0=-86
 .6046954\MP4SDQ=-86.5986287\CCSD=-86.5975008\CCSD(T)=-86.6147798\RMSD=
 6.637e-09\PG=OH [O(Cr1)]\\@

 Normal termination of Gaussian 16 at Thu Apr 19 10:41:18 2018.
