 Gaussian 16, Revision A.03,
 Gaussian 16:  ES64L-G16RevA.03 25-Dec-2016

 ----------------------------------------------------------------------
 #P ROCCSD(T)=(maxcyc=150, Full, SaveAmplitudes, ReadAmplitudes)/Gen 5d
  7f SCF=(maxcycles=300) Integral(NoXCTest) MaxDisk=500GB Pop=Regular P
 seudo=Read Guess=Read IOp(5/15=2)
 ----------------------------------------------------------------------

 ---
 TiO
 ---
 Symbolic Z-matrix:
 Charge =  0 Multiplicity = 3

                         Standard orientation:
 ---------------------------------------------------------------------
 Center     Atomic      Atomic             Coordinates (Angstroms)
 Number     Number       Type             X           Y           Z
 ---------------------------------------------------------------------
      1         22           0        0.000000    0.000000    0.480000
      2          8           0        0.000000    0.000000   -1.320000
 ---------------------------------------------------------------------

 SCF Done:  E(ROHF) =  -73.5024717145     A.U. after   22 cycles
 E2 =    -0.7514110442D+00 EUMP2 =    -0.74253882758695D+02
 CCSD(T)
 CCSD(T)= -0.74289223540D+02

 Unable to determine electronic state:  an orbital has unidentified symmetry.
 Alpha  occ. eigenvalues --   -3.08977  -1.95529  -1.95529  -1.91474  -1.13909
 Alpha  occ. eigenvalues --   -0.50844  -0.43226  -0.39427  -0.39427  -0.28897
 Alpha virt. eigenvalues --   -0.00446  -0.00446   0.00709   0.02252   0.03586
 Alpha virt. eigenvalues --    0.03586   0.04100   0.04693   0.05081   0.05928
 Alpha virt. eigenvalues --    0.05928   0.06156   0.08541   0.10788   0.11838

 Mulliken charges and spin densities:
               1          2
     1  Ti   0.949690   1.986808
     2  O   -0.949690   0.013192
 Sum of Mulliken charges =  -0.00000   2.00000

 Dipole moment (field-independent basis, Debye):
    X=              0.0000    Y=              0.0000    Z=              6.1708  Tot=              6.1708
 Quadrupole moment (field-independent basis, Debye-Ang):
   XX=            -21.5375   YY=            -21.5375   ZZ=            -30.0520
   XY=              0.0000   XZ=              0.0000   YZ=              0.0000

 \\#P ROCCSD(T)=(maxcyc=150, Full, SaveAmplitudes, ReadAmplitudes)/Gen
 .2366771\CCSD(T)=-74.2892235\RMSD=6.810e-09\PG=C*V [C*(O1Ti1)]\\@
 Normal termination of Gaussian 16 at Mon Mar 12 14:25:58 2018.
