 Gaussian 16, Revision A.03,
 Gaussian 16:  ES64L-G16RevA.03 25-Dec-2016

 ----------------------------------------------------------------------
 #P ROCCSD(T)=(MaxCyc=150, Full)/Gen SCF=(maxcycle=400, vshift=200) Pse
 udo=Read Integral(NoXCTest) Pop=Regular MaxDisk=500GB Guess=Read IOp(5
 /15=2)
 ----------------------------------------------------------------------

 ---
 FeH
 ---
 Symbolic Z-matrix:
 Charge =  0 Multiplicity = 4

                         Standard orientation:
 ---------------------------------------------------------------------
 Center     Atomic      Atomic             Coordinates (Angstroms)
 Number     Number       Type             X           Y           Z
 ---------------------------------------------------------------------
      1         26           0        0.000000    0.000000    0.048148
      2          1           0        0.000000    0.000000   -1.251852
 ---------------------------------------------------------------------

 SCF Done:  E(ROHF) =  -123.266574776     A.U. after   27 cycles
 E2 =    -0.8180447857D+00 EUMP2 =    -0.12408461956124D+03
 CCSD(T)
 CCSD(T)= -0.12407918509D+03

 Unable to determine electronic state:  partially filled degenerate orbitals.
 Alpha  occ. eigenvalues --   -4.20544  -2.83113  -2.81434  -2.81434  -0.53702
 Alpha  occ. eigenvalues --   -0.53702  -0.51751  -0.51525  -0.46847  -0.30884
 Alpha virt. eigenvalues --    0.00186   0.02248   0.02248   0.02693   0.04399
 Alpha virt. eigenvalues --    0.06246   0.06819   0.06819   0.06847   0.06859
 Alpha virt. eigenvalues --    0.07547   0.07547   0.09403   0.17088   0.17979

 Mulliken charges and spin densities:
               1          2
     1  Fe   0.287291   2.992946
     2  H   -0.287291   0.007054
 Sum of Mulliken charges =  -0.00000   3.00000

 Dipole moment (field-independent basis, Debye):
    X=              0.0000    Y=              0.0000    Z=              3.4336  Tot=              3.4336
 Quadrupole moment (field-independent basis, Debye-Ang):
   XX=            -16.3845   YY=            -16.3845   ZZ=            -16.0962
   XY=              0.0000   XZ=              0.0000   YZ=              0.0000

 \\#P ROCCSD(T)=(MaxCyc=150, Full)/Gen SCF=(maxcycle=400, vshift=200) P
 \PMP2-0=-124.0846196\MP4SDQ=-124.0591844\CCSD=-124.048218\CCSD(T)=-124
 Normal termination of Gaussian 16 at Sat Mar 24 01:19:37 2018.
