 Gaussian 16, Revision A.03,
 Gaussian 16:  ES64L-G16RevA.03 25-Dec-2016

 ----------------------------------------------------------------------
 #P ROCCSD(T)=(MaxCyc=150, Full)/Gen SCF=(maxcycle=400, vshift=200) Pse
 udo=Read Integral(NoXCTest) Pop=Regular MaxDisk=500GB Guess=Read IOp(5
 /15=2)
 ----------------------------------------------------------------------

 ---
 FeH
 ---
 Symbolic Z-matrix:
 Charge =  0 Multiplicity = 4

                         Standard orientation:
 ---------------------------------------------------------------------
 Center     Atomic      Atomic             Coordinates (Angstroms)
 Number     Number       Type             X           Y           Z
 ---------------------------------------------------------------------
      1         26           0        0.000000    0.000000    0.048148
      2          1           0        0.000000    0.000000   -1.251852
 ---------------------------------------------------------------------

 SCF Done:  E(ROHF) =  -123.265129827     A.U. after   33 cycles
 E2 =    -0.7824362704D+00 EUMP2 =    -0.12404756609693D+03
 CCSD(T)
 CCSD(T)= -0.12404418762D+03

 Unable to determine electronic state:  an orbital has unidentified symmetry.
 Alpha  occ. eigenvalues --   -4.20568  -2.83136  -2.81454  -2.81454  -0.53703
 Alpha  occ. eigenvalues --   -0.53703  -0.51750  -0.51521  -0.46843  -0.30885
 Alpha virt. eigenvalues --    0.00215   0.02463   0.02463   0.02951   0.04587
 Alpha virt. eigenvalues --    0.08302   0.08302   0.09604   0.10303   0.10303
 Alpha virt. eigenvalues --    0.10322   0.10357   0.10541   0.16705   0.24821

 Mulliken charges and spin densities:
               1          2
     1  Fe   0.370050   2.994303
     2  H   -0.370050   0.005697
 Sum of Mulliken charges =  -0.00000   3.00000

 Dipole moment (field-independent basis, Debye):
    X=              0.0000    Y=              0.0000    Z=              3.4362  Tot=              3.4362
 Quadrupole moment (field-independent basis, Debye-Ang):
   XX=            -16.3947   YY=            -16.3947   ZZ=            -16.0909
   XY=              0.0000   XZ=              0.0000   YZ=              0.0000

 \\#P ROCCSD(T)=(MaxCyc=150, Full)/Gen SCF=(maxcycle=400, vshift=200) P
 \PMP2-0=-124.0475661\MP4SDQ=-124.0258169\CCSD=-124.0146351\CCSD(T)=-12
 Normal termination of Gaussian 16 at Sat Mar 24 00:35:44 2018.
