 Gaussian 16, Revision A.03,
 Gaussian 16:  ES64L-G16RevA.03 25-Dec-2016

 ----------------------------------------------------------------------
 #P ROCCSD(T)=(MaxCyc=150, Full)/Gen SCF=(maxcycle=400, vshift=200) Pse
 udo=Read Integral(NoXCTest) Pop=Regular MaxDisk=500GB Guess=Read IOp(5
 /15=2)
 ----------------------------------------------------------------------

 ---
 FeH
 ---
 Symbolic Z-matrix:
 Charge =  0 Multiplicity = 4

                         Standard orientation:
 ---------------------------------------------------------------------
 Center     Atomic      Atomic             Coordinates (Angstroms)
 Number     Number       Type             X           Y           Z
 ---------------------------------------------------------------------
      1         26           0        0.000000    0.000000    0.048148
      2          1           0        0.000000    0.000000   -1.251852
 ---------------------------------------------------------------------

 SCF Done:  E(ROHF) =  -123.266740247     A.U. after   18 cycles
 E2 =    -0.8322966481D+00 EUMP2 =    -0.12409903689537D+03
 CCSD(T)
 CCSD(T)= -0.12409156699D+03

 Unable to determine electronic state:  an orbital has unidentified symmetry.
 Alpha  occ. eigenvalues --   -4.20540  -2.83109  -2.81430  -2.81430  -0.53699
 Alpha  occ. eigenvalues --   -0.53699  -0.51747  -0.51526  -0.46848  -0.30884
 Alpha virt. eigenvalues --    0.00140   0.02184   0.02184   0.02409   0.03779
 Alpha virt. eigenvalues --    0.05872   0.06271   0.06281   0.06286   0.06286
 Alpha virt. eigenvalues --    0.07214   0.07214   0.08248   0.12981   0.17294

 Mulliken charges and spin densities:
               1          2
     1  Fe   0.292264   2.991812
     2  H   -0.292264   0.008188
 Sum of Mulliken charges =  -0.00000   3.00000

 Dipole moment (field-independent basis, Debye):
    X=              0.0000    Y=              0.0000    Z=              3.4336  Tot=              3.4336
 Quadrupole moment (field-independent basis, Debye-Ang):
   XX=            -16.3828   YY=            -16.3828   ZZ=            -16.0977
   XY=              0.0000   XZ=              0.0000   YZ=              0.0000

 \\#P ROCCSD(T)=(MaxCyc=150, Full)/Gen SCF=(maxcycle=400, vshift=200) P
 \PMP2-0=-124.0990369\MP4SDQ=-124.0709418\CCSD=-124.0601021\CCSD(T)=-12
 Normal termination of Gaussian 16 at Sat Mar 24 03:12:00 2018.
