 Gaussian 16, Revision A.03,
 Gaussian 16:  ES64L-G16RevA.03 25-Dec-2016

 ----------------------------------------------------------------------
 #P ROCCSD(T)=(maxcyc=150, Full, SaveAmplitudes, ReadAmplitudes)/Gen 5d
  7f SCF=(maxcycles=300) Integral(NoXCTest, DKHSO) MaxDisk=500GB Pop=Re
 gular Guess=Read
 ----------------------------------------------------------------------

 ---
 ScO
 ---
 Symbolic Z-matrix:
 Charge =  0 Multiplicity = 2

                         Standard orientation:
 ---------------------------------------------------------------------
 Center     Atomic      Atomic             Coordinates (Angstroms)
 Number     Number       Type             X           Y           Z
 ---------------------------------------------------------------------
      1         21           0        0.000000    0.000000    0.303448
      2          8           0        0.000000    0.000000   -0.796552
 ---------------------------------------------------------------------

 SCF Done:  E(ROHF) =  -837.715131118     A.U. after   19 cycles
 E2 =    -0.1052136988D+01 EUMP2 =    -0.83876726810601D+03
 CCSD(T)
 CCSD(T)= -0.83879093205D+03

 The electronic state is 2-SG.
 Alpha  occ. eigenvalues -- -166.68829 -20.65863 -19.09778 -15.52467 -15.52467
 Alpha  occ. eigenvalues --  -15.52277  -2.67888  -1.85049  -1.53059  -1.53059
 Alpha  occ. eigenvalues --   -1.03083  -0.69394  -0.69394  -0.46913  -0.16569
 Alpha virt. eigenvalues --    0.00960   0.00960   0.01488   0.02997   0.03751
 Alpha virt. eigenvalues --    0.03751   0.03802   0.03802   0.03870   0.04934
 Alpha virt. eigenvalues --    0.04934   0.06755   0.11190   0.11190   0.11363

 Mulliken charges and spin densities:
               1          2
     1  Sc   0.950247   1.062828
     2  O   -0.950247  -0.062828
 Sum of Mulliken charges =  -0.00000   1.00000

 Dipole moment (field-independent basis, Debye):
    X=              0.0000    Y=              0.0000    Z=             -2.4495  Tot=              2.4495
 Quadrupole moment (field-independent basis, Debye-Ang):
   XX=            -24.8792   YY=            -24.8792   ZZ=            -29.0498
   XY=              0.0000   XZ=              0.0000   YZ=              0.0000

 \\#P ROCCSD(T)=(maxcyc=150, Full, SaveAmplitudes, ReadAmplitudes)/Gen
 8.764878\CCSD(T)=-838.790932\RMSD=1.741e-09\PG=C*V [C*(O1Sc1)]\\@
 Normal termination of Gaussian 16 at Tue Feb 20 21:27:28 2018.
