 Gaussian 16, Revision A.03,
 Gaussian 16:  ES64L-G16RevA.03 25-Dec-2016

 ----------------------------------------------------------------------
 #P ROCCSD(T)=(maxcyc=150, Full, SaveAmplitudes, ReadAmplitudes)/Gen 5d
  7f SCF=(maxcycles=300, VShift=400) Integral(NoXCTest) MaxDisk=500GB P
 op=Full Pseudo=Read Guess=Read
 ----------------------------------------------------------------------

 ---
 MnH
 ---
 Symbolic Z-matrix:
 Charge =  0 Multiplicity = 7

                         Standard orientation:
 ---------------------------------------------------------------------
 Center     Atomic      Atomic             Coordinates (Angstroms)
 Number     Number       Type             X           Y           Z
 ---------------------------------------------------------------------
      1         25           0        0.000000    0.000000    0.069231
      2          1           0        0.000000    0.000000   -1.730769
 ---------------------------------------------------------------------

 SCF Done:  E(ROHF) =  -103.795916210     A.U. after   29 cycles
 E2 =    -0.5992417663D+00 EUMP2 =    -0.10439515797596D+03
 CCSD(T)
 CCSD(T)= -0.10441691456D+03

 The electronic state is 7-SG.
 Alpha  occ. eigenvalues --   -4.15082  -2.77337  -2.77337  -2.77106  -0.65010
 Alpha  occ. eigenvalues --   -0.65010  -0.64531  -0.64309  -0.64309  -0.40176
 Alpha  occ. eigenvalues --   -0.26432
 Alpha virt. eigenvalues --    0.01128   0.01128   0.02170   0.02898   0.05003
 Alpha virt. eigenvalues --    0.05003   0.05629   0.05790   0.05790   0.06197
 Alpha virt. eigenvalues --    0.06197   0.09252   0.12989   0.13973   0.18065

 Mulliken charges and spin densities:
               1          2
     1  Mn   0.368063   5.952097
     2  H   -0.368063   0.047903
 Sum of Mulliken charges =  -0.00000   6.00000

 Dipole moment (field-independent basis, Debye):
    X=              0.0000    Y=              0.0000    Z=              1.6666  Tot=              1.6666
 Quadrupole moment (field-independent basis, Debye-Ang):
   XX=            -16.2730   YY=            -16.2730   ZZ=            -26.8686
   XY=              0.0000   XZ=              0.0000   YZ=              0.0000

 \\#P ROCCSD(T)=(maxcyc=150, Full, SaveAmplitudes, ReadAmplitudes)/Gen
 PUHF=-103.7959162\PMP2-0=-104.395158\CCSD=-104.4003715\CCSD(T)=-104.41
 Normal termination of Gaussian 16 at Thu Apr 19 09:05:44 2018.
