 Gaussian 16, Revision A.03,
 Gaussian 16:  ES64L-G16RevA.03 25-Dec-2016

 ----------------------------------------------------------------------
 #P ROCCSD(T)=(maxcyc=150, Window=(7,0), SaveAmplitudes, ReadAmplitudes
 )/Gen 5d 7f SCF=(maxcycles=300) Integral(NoXCTest, DKHSO) MaxDisk=500G
 B Pop=Regular Guess=Read IOp(5/15=2)
 ----------------------------------------------------------------------

 ---
 ScO
 ---
 Symbolic Z-matrix:
 Charge =  0 Multiplicity = 2

                         Standard orientation:
 ---------------------------------------------------------------------
 Center     Atomic      Atomic             Coordinates (Angstroms)
 Number     Number       Type             X           Y           Z
 ---------------------------------------------------------------------
      1         21           0        0.000000    0.000000    0.524138
      2          8           0        0.000000    0.000000   -1.375862
 ---------------------------------------------------------------------

 SCF Done:  E(ROHF) =  -838.234677823     A.U. after   16 cycles
 E2 =    -0.6647021304D+00 EUMP2 =    -0.83889937995310D+03
 CCSD(T)
 CCSD(T)= -0.83892946299D+03

 The electronic state is 2-SG.
 Alpha  occ. eigenvalues -- -166.94053 -20.47481 -19.39404 -15.81601 -15.81601
 Alpha  occ. eigenvalues --  -15.81462  -2.70251  -1.68228  -1.68206  -1.68206
 Alpha  occ. eigenvalues --   -1.09662  -0.40269  -0.36391  -0.36391  -0.27475
 Alpha virt. eigenvalues --   -0.00867  -0.00867   0.00915   0.01954   0.03051
 Alpha virt. eigenvalues --    0.03051   0.03359   0.03359   0.04140   0.04317
 Alpha virt. eigenvalues --    0.04317   0.04905   0.06167   0.06167   0.09947

 Mulliken charges and spin densities:
               1          2
     1  Sc   1.222616   0.977520
     2  O   -1.222616   0.022480
 Sum of Mulliken charges =  -0.00000   1.00000

 Dipole moment (field-independent basis, Debye):
    X=              0.0000    Y=              0.0000    Z=              6.6493  Tot=              6.6493
 Quadrupole moment (field-independent basis, Debye-Ang):
   XX=            -22.4684   YY=            -22.4684   ZZ=            -34.6920
   XY=              0.0000   XZ=              0.0000   YZ=              0.0000

 1\1\GINC-C483-121\SP\ROCCSD(T)-RW\Gen\O1Sc1(2)\AANNABE\20-Feb-2018\0\\
 #P ROCCSD(T)=(maxcyc=150, Window=(7,0), SaveAmplitudes, ReadAmplitudes
 )/Gen 5d 7f SCF=(maxcycles=300) Integral(NoXCTest, DKHSO) MaxDisk=500G
 B Pop=Regular Guess=Read IOp(5/15=2)\\ScO\\0,2\Sc,0,0.,0.,0.\O,0,0.,0.
 ,1.9\\Version=ES64L-G16RevA.03\State=2-SG\HF=-838.2346778\MP2=-838.899
 38\MP3=-838.8581042\PUHF=-838.2346778\PMP2-0=-838.89938\MP4SDQ=-838.91
 79597\CCSD=-838.8841592\CCSD(T)=-838.929463\RMSD=9.331e-09\PG=C*V [C*(
 O1Sc1)]\\@

 Normal termination of Gaussian 16 at Tue Feb 20 19:46:13 2018.
