 Gaussian 16, Revision A.03,
 Gaussian 16:  ES64L-G16RevA.03 25-Dec-2016

 ----------------------------------------------------------------------
 #P ROCCSD(T)=(maxcyc=150, Full, SaveAmplitudes, ReadAmplitudes)/Gen 5d
  7f SCF=(maxcycles=300) Integral(NoXCTest) MaxDisk=500GB Pop=Regular P
 seudo=Read Guess=Read
 ----------------------------------------------------------------------

 ---
 ScO
 ---
 Symbolic Z-matrix:
 Charge =  0 Multiplicity = 2

                         Standard orientation:
 ---------------------------------------------------------------------
 Center     Atomic      Atomic             Coordinates (Angstroms)
 Number     Number       Type             X           Y           Z
 ---------------------------------------------------------------------
      1         21           0        0.000000    0.000000    0.468966
      2          8           0        0.000000    0.000000   -1.231034
 ---------------------------------------------------------------------

 SCF Done:  E(ROHF) =  -61.8323295955     A.U. after   17 cycles
 E2 =    -0.7099521410D+00 EUMP2 =    -0.62542281736485D+02
 CCSD(T)
 CCSD(T)= -0.62569137957D+02

 The electronic state is 2-SG.
 Alpha  occ. eigenvalues --   -2.66356  -1.66770  -1.63794  -1.63794  -1.11785
 Alpha  occ. eigenvalues --   -0.42765  -0.41223  -0.41223  -0.25180
 Alpha virt. eigenvalues --   -0.00044  -0.00044   0.01312   0.02041   0.02701
 Alpha virt. eigenvalues --    0.02701   0.02978   0.02978   0.03232   0.03232
 Alpha virt. eigenvalues --    0.03450   0.04613   0.06745   0.06745   0.09309

 Mulliken charges and spin densities:
               1          2
     1  Sc   1.286818   0.990893
     2  O   -1.286818   0.009107
 Sum of Mulliken charges =  -0.00000   1.00000

 Dipole moment (field-independent basis, Debye):
    X=              0.0000    Y=              0.0000    Z=              4.8348  Tot=              4.8348
 Quadrupole moment (field-independent basis, Debye-Ang):
   XX=            -21.9389   YY=            -21.9389   ZZ=            -32.6306
   XY=              0.0000   XZ=              0.0000   YZ=              0.0000

 \\#P ROCCSD(T)=(maxcyc=150, Full, SaveAmplitudes, ReadAmplitudes)/Gen
 323296\PMP2-0=-62.5422817\CCSD=-62.5270209\CCSD(T)=-62.569138\RMSD=4.1
 Normal termination of Gaussian 16 at Wed Feb 21 05:01:22 2018.
