 Gaussian 16, Revision A.03,
 Gaussian 16:  ES64L-G16RevA.03 25-Dec-2016

 ----------------------------------------------------------------------
 #P ROCCSD(T)=(MaxCyc=150, Full)/Gen SCF=(maxcycle=400, vshift=200) Pse
 udo=Read Integral(NoXCTest) Pop=Regular MaxDisk=500GB Guess=Read IOp(5
 /15=2)
 ----------------------------------------------------------------------

 ---
 CoH
 ---
 Symbolic Z-matrix:
 Charge =  0 Multiplicity = 3

                         Standard orientation:
 ---------------------------------------------------------------------
 Center     Atomic      Atomic             Coordinates (Angstroms)
 Number     Number       Type             X           Y           Z
 ---------------------------------------------------------------------
      1         27           0        0.000000    0.000000    0.046429
      2          1           0        0.000000    0.000000   -1.253571
 ---------------------------------------------------------------------

 SCF Done:  E(ROHF) =  -145.387764193     A.U. after   32 cycles
 E2 =    -0.9221849008D+00 EUMP2 =    -0.14630994909381D+03
 CCSD(T)
 CCSD(T)= -0.14628401574D+03

 Unable to determine electronic state:  partially filled degenerate orbitals.
 Alpha  occ. eigenvalues --   -4.58750  -2.94533  -2.94293  -2.94293  -0.50719
 Alpha  occ. eigenvalues --   -0.49059  -0.44850  -0.44850  -0.44500  -0.31953
 Alpha virt. eigenvalues --    0.00526   0.02481   0.02481   0.02896   0.05353
 Alpha virt. eigenvalues --    0.06998   0.07388   0.07401   0.07553   0.07553
 Alpha virt. eigenvalues --    0.08636   0.08636   0.09841   0.19136   0.20501

 Mulliken charges and spin densities:
               1          2
     1  Co   0.397107   1.992729
     2  H   -0.397107   0.007271
 Sum of Mulliken charges =  -0.00000   2.00000

 Dipole moment (field-independent basis, Debye):
    X=              0.0000    Y=              0.0000    Z=              3.8277  Tot=              3.8277
 Quadrupole moment (field-independent basis, Debye-Ang):
   XX=            -13.8572   YY=            -13.8572   ZZ=            -16.5236
   XY=              0.0000   XZ=              0.0000   YZ=              0.0000

 \\#P ROCCSD(T)=(MaxCyc=150, Full)/Gen SCF=(maxcycle=400, vshift=200) P
 \PMP2-0=-146.3099491\MP4SDQ=-146.2787265\CCSD=-146.2508294\CCSD(T)=-14
 Normal termination of Gaussian 16 at Sun Apr 22 03:02:51 2018.
