 Gaussian 16, Revision A.03,
 Gaussian 16:  ES64L-G16RevA.03 25-Dec-2016

 ----------------------------------------------------------------------
 #P ROCCSD(T)=(MaxCyc=150, Full)/Gen SCF=(maxcycle=400, vshift=200) Pse
 udo=Read Integral(NoXCTest) Pop=Regular MaxDisk=500GB Guess=Read IOp(5
 /15=2)
 ----------------------------------------------------------------------

 ---
 CoH
 ---
 Symbolic Z-matrix:
 Charge =  0 Multiplicity = 3

                         Standard orientation:
 ---------------------------------------------------------------------
 Center     Atomic      Atomic             Coordinates (Angstroms)
 Number     Number       Type             X           Y           Z
 ---------------------------------------------------------------------
      1         27           0        0.000000    0.000000    0.046429
      2          1           0        0.000000    0.000000   -1.253571
 ---------------------------------------------------------------------

 SCF Done:  E(ROHF) =  -145.387976778     A.U. after   28 cycles
 E2 =    -0.9422357713D+00 EUMP2 =    -0.14633021254906D+03
 CCSD(T)
 CCSD(T)= -0.14630205159D+03

 Unable to determine electronic state:  partially filled degenerate orbitals.
 Alpha  occ. eigenvalues --   -4.58750  -2.94533  -2.94292  -2.94292  -0.50717
 Alpha  occ. eigenvalues --   -0.49057  -0.44856  -0.44856  -0.44505  -0.31952
 Alpha virt. eigenvalues --    0.00442   0.02401   0.02401   0.02599   0.04614
 Alpha virt. eigenvalues --    0.06482   0.06675   0.06685   0.06870   0.06870
 Alpha virt. eigenvalues --    0.08239   0.08239   0.08564   0.14841   0.18943

 Mulliken charges and spin densities:
               1          2
     1  Co   0.363087   1.968117
     2  H   -0.363087   0.031883
 Sum of Mulliken charges =  -0.00000   2.00000

 Dipole moment (field-independent basis, Debye):
    X=              0.0000    Y=              0.0000    Z=              3.8271  Tot=              3.8271
 Quadrupole moment (field-independent basis, Debye-Ang):
   XX=            -13.8566   YY=            -13.8566   ZZ=            -16.5241
   XY=              0.0000   XZ=              0.0000   YZ=              0.0000

 \\#P ROCCSD(T)=(MaxCyc=150, Full)/Gen SCF=(maxcycle=400, vshift=200) P
 \PMP2-0=-146.3302125\MP4SDQ=-146.2957919\CCSD=-146.2682653\CCSD(T)=-14
 Normal termination of Gaussian 16 at Sat Apr 28 23:50:06 2018.
