 Gaussian 16, Revision A.03,
 Gaussian 16:  ES64L-G16RevA.03 25-Dec-2016

 ----------------------------------------------------------------------
 #P ROCCSD(T)=(MaxCyc=150, Full)/Gen SCF=(maxcycle=400, vshift=200) Pse
 udo=Read Integral(NoXCTest) Pop=Regular MaxDisk=500GB Guess=Read IOp(5
 /15=2)
 ----------------------------------------------------------------------

 ---
 CoH
 ---
 Symbolic Z-matrix:
 Charge =  0 Multiplicity = 3

                         Standard orientation:
 ---------------------------------------------------------------------
 Center     Atomic      Atomic             Coordinates (Angstroms)
 Number     Number       Type             X           Y           Z
 ---------------------------------------------------------------------
      1         27           0        0.000000    0.000000    0.046429
      2          1           0        0.000000    0.000000   -1.253571
 ---------------------------------------------------------------------

 SCF Done:  E(ROHF) =  -145.386384314     A.U. after   44 cycles
 E2 =    -0.8809277489D+00 EUMP2 =    -0.14626731206245D+03
 CCSD(T)
 CCSD(T)= -0.14624296434D+03

 Unable to determine electronic state:  partially filled degenerate orbitals.
 Alpha  occ. eigenvalues --   -4.58751  -2.94542  -2.94302  -2.94302  -0.50719
 Alpha  occ. eigenvalues --   -0.49060  -0.44845  -0.44845  -0.44498  -0.31954
 Alpha virt. eigenvalues --    0.00566   0.02725   0.02725   0.03169   0.05574
 Alpha virt. eigenvalues --    0.09458   0.09458   0.10240   0.11409   0.11449
 Alpha virt. eigenvalues --    0.11462   0.11563   0.11563   0.18897   0.26109

 Mulliken charges and spin densities:
               1          2
     1  Co   0.324783   1.969373
     2  H   -0.324783   0.030627
 Sum of Mulliken charges =  -0.00000   2.00000

 Dipole moment (field-independent basis, Debye):
    X=              0.0000    Y=              0.0000    Z=              3.8300  Tot=              3.8300
 Quadrupole moment (field-independent basis, Debye-Ang):
   XX=            -13.8677   YY=            -13.8676   ZZ=            -16.5236
   XY=              0.0000   XZ=              0.0000   YZ=              0.0000

 \\#P ROCCSD(T)=(MaxCyc=150, Full)/Gen SCF=(maxcycle=400, vshift=200) P
 \PMP2-0=-146.2673121\MP4SDQ=-146.2398365\CCSD=-146.2113528\CCSD(T)=-14
 Normal termination of Gaussian 16 at Sun Apr 22 02:16:53 2018.
