 Gaussian 16, Revision A.03,
 Gaussian 16:  ES64L-G16RevA.03 25-Dec-2016

 ----------------------------------------------------------------------
 #P ROCCSD(T)=(maxcyc=150, Full, SaveAmplitudes, ReadAmplitudes)/Gen 5d
  7f SCF=(maxcycles=300) Integral(NoXCTest) MaxDisk=500GB Pop=Regular P
 seudo=Read Guess=Read IOp(5/15=2)
 ----------------------------------------------------------------------

 ---
 ScO
 ---
 Symbolic Z-matrix:
 Charge =  0 Multiplicity = 2

                         Standard orientation:
 ---------------------------------------------------------------------
 Center     Atomic      Atomic             Coordinates (Angstroms)
 Number     Number       Type             X           Y           Z
 ---------------------------------------------------------------------
      1         21           0        0.000000    0.000000    0.496552
      2          8           0        0.000000    0.000000   -1.303448
 ---------------------------------------------------------------------

 SCF Done:  E(ROHF) =  -62.0439117066     A.U. after   18 cycles
 E2 =    -0.6885614367D+00 EUMP2 =    -0.62732473143218D+02
 CCSD(T)
 CCSD(T)= -0.62763745547D+02

 The electronic state is 2-SG.
 Alpha  occ. eigenvalues --   -2.74555  -1.66710  -1.65590  -1.65590  -1.11949
 Alpha  occ. eigenvalues --   -0.41474  -0.38499  -0.38499  -0.26459
 Alpha virt. eigenvalues --   -0.00463  -0.00463   0.01198   0.02109   0.03274
 Alpha virt. eigenvalues --    0.03274   0.03487   0.03487   0.04254   0.04254
 Alpha virt. eigenvalues --    0.04406   0.04993   0.07123   0.07123   0.10238

 Mulliken charges and spin densities:
               1          2
     1  Sc   1.242536   0.975996
     2  O   -1.242536   0.024004
 Sum of Mulliken charges =  -0.00000   1.00000

 Dipole moment (field-independent basis, Debye):
    X=              0.0000    Y=              0.0000    Z=              5.7872  Tot=              5.7872
 Quadrupole moment (field-independent basis, Debye-Ang):
   XX=            -21.8740   YY=            -21.8740   ZZ=            -33.4838
   XY=              0.0000   XZ=              0.0000   YZ=              0.0000

 \\#P ROCCSD(T)=(maxcyc=150, Full, SaveAmplitudes, ReadAmplitudes)/Gen
 94\CCSD=-62.7206071\CCSD(T)=-62.7637455\RMSD=7.170e-10\PG=C*V [C*(O1Sc
 Normal termination of Gaussian 16 at Wed Feb 21 05:23:04 2018.
