 Gaussian 16, Revision A.03,
 Gaussian 16:  ES64L-G16RevA.03 25-Dec-2016

 ----------------------------------------------------------------------
 #P ROCCSD(T)=(MaxCyc=150, Full)/Gen SCF=(maxcycle=400) Pseudo=Read Int
 egral(NoXCTest) Pop=Regular MaxDisk=500GB Guess=Read IOp(5/15=2)
 ----------------------------------------------------------------------

 ---
 CuO
 ---
 Symbolic Z-matrix:
 Charge =  0 Multiplicity = 2

                         Standard orientation:
 ---------------------------------------------------------------------
 Center     Atomic      Atomic             Coordinates (Angstroms)
 Number     Number       Type             X           Y           Z
 ---------------------------------------------------------------------
      1         29           0        0.000000    0.000000    0.324324
      2          8           0        0.000000    0.000000   -1.175676
 ---------------------------------------------------------------------

 SCF Done:  E(ROHF) =  -211.904698943     A.U. after   20 cycles
 E2 =    -0.1403899966D+01 EUMP2 =    -0.21330859890918D+03
 CCSD(T)
 CCSD(T)= -0.21323738583D+03

 Unable to determine electronic state:  an orbital has unidentified symmetry.
 Alpha  occ. eigenvalues --   -4.99917  -3.41817  -3.40271  -3.39607  -1.26911
 Alpha  occ. eigenvalues --   -0.64489  -0.60826  -0.59110  -0.54370  -0.54369
 Alpha  occ. eigenvalues --   -0.47896  -0.42425  -0.38209
 Alpha virt. eigenvalues --   -0.00568   0.02660   0.02798   0.03600   0.04693
 Alpha virt. eigenvalues --    0.09187   0.09536   0.12028   0.13636   0.13648
 Alpha virt. eigenvalues --    0.14267   0.14298   0.14696   0.19088   0.21700

 Mulliken charges and spin densities:
               1          2
     1  Cu   0.710702   0.055578
     2  O   -0.710702   0.944422
 Sum of Mulliken charges =  -0.00000   1.00000

 Dipole moment (field-independent basis, Debye):
    X=              0.0000    Y=              0.0000    Z=              4.8666  Tot=              4.8666
 Quadrupole moment (field-independent basis, Debye-Ang):
   XX=            -16.0663   YY=            -17.5827   ZZ=            -18.7764
   XY=              0.0000   XZ=              0.0000   YZ=              0.0000

 \\#P ROCCSD(T)=(MaxCyc=150, Full)/Gen SCF=(maxcycle=400) Pseudo=Read I
 .3085989\MP4SDQ=-213.268243\CCSD=-213.1837183\CCSD(T)=-213.2373858\RMS
 Normal termination of Gaussian 16 at Mon Mar 26 02:27:50 2018.
