 Gaussian 16, Revision A.03,
 Gaussian 16:  ES64L-G16RevA.03 25-Dec-2016

 ----------------------------------------------------------------------
 #P ROCCSD(T)=(MaxCyc=150, Full)/Gen SCF=(maxcycle=400) Pseudo=Read Int
 egral(NoXCTest) Pop=Regular MaxDisk=500GB Guess=Read IOp(5/15=2)
 ----------------------------------------------------------------------

 ---
 CuO
 ---
 Symbolic Z-matrix:
 Charge =  0 Multiplicity = 2

                         Standard orientation:
 ---------------------------------------------------------------------
 Center     Atomic      Atomic             Coordinates (Angstroms)
 Number     Number       Type             X           Y           Z
 ---------------------------------------------------------------------
      1         29           0        0.000000    0.000000    0.324324
      2          8           0        0.000000    0.000000   -1.175676
 ---------------------------------------------------------------------

 SCF Done:  E(ROHF) =  -211.899859998     A.U. after   20 cycles
 E2 =    -0.1339942870D+01 EUMP2 =    -0.21323980286796D+03
 CCSD(T)
 CCSD(T)= -0.21317156186D+03

 Unable to determine electronic state:  an orbital has unidentified symmetry.
 Alpha  occ. eigenvalues --   -4.99959  -3.41863  -3.40308  -3.39640  -1.26966
 Alpha  occ. eigenvalues --   -0.64484  -0.60820  -0.59126  -0.54364  -0.54363
 Alpha  occ. eigenvalues --   -0.47894  -0.42422  -0.38226
 Alpha virt. eigenvalues --   -0.00557   0.03000   0.03172   0.04018   0.04985
 Alpha virt. eigenvalues --    0.10696   0.11145   0.13724   0.19389   0.19880
 Alpha virt. eigenvalues --    0.19902   0.21359   0.21468   0.22454   0.26026

 Mulliken charges and spin densities:
               1          2
     1  Cu   0.880371   0.051118
     2  O   -0.880371   0.948882
 Sum of Mulliken charges =  -0.00000   1.00000

 Dipole moment (field-independent basis, Debye):
    X=              0.0000    Y=              0.0000    Z=              4.8819  Tot=              4.8819
 Quadrupole moment (field-independent basis, Debye-Ang):
   XX=            -16.0743   YY=            -17.6072   ZZ=            -18.7630
   XY=              0.0000   XZ=              0.0000   YZ=              0.0000

 \\#P ROCCSD(T)=(MaxCyc=150, Full)/Gen SCF=(maxcycle=400) Pseudo=Read I
 8029\MP4SDQ=-213.2059143\CCSD=-213.1205361\CCSD(T)=-213.1715619\RMSD=4
 Normal termination of Gaussian 16 at Sun Mar 25 23:49:13 2018.
