 Gaussian 16, Revision A.03,
 Gaussian 16:  ES64L-G16RevA.03 25-Dec-2016

 ----------------------------------------------------------------------
 #P ROCCSD(T)=(maxcyc=150, Full, SaveAmplitudes, ReadAmplitudes)/Gen 5d
  7f SCF=(maxcycles=300) Integral(NoXCTest) MaxDisk=500GB Pop=Regular P
 seudo=Read Guess=Read IOp(5/15=2)
 ----------------------------------------------------------------------

 ---
 CrO
 ---
 Symbolic Z-matrix:
 Charge =  0 Multiplicity = 5

                         Standard orientation:
 ---------------------------------------------------------------------
 Center     Atomic      Atomic             Coordinates (Angstroms)
 Number     Number       Type             X           Y           Z
 ---------------------------------------------------------------------
      1         24           0        0.000000    0.000000    0.375000
      2          8           0        0.000000    0.000000   -1.125000
 ---------------------------------------------------------------------

 SCF Done:  E(ROHF) =  -101.837997973     A.U. after   27 cycles
 E2 =    -0.8764490567D+00 EUMP2 =    -0.10271444703001D+03
 CCSD(T)
 CCSD(T)= -0.10273693636D+03

 Unable to determine electronic state:  an orbital has unidentified symmetry.
 Alpha  occ. eigenvalues --   -3.78502  -2.52734  -2.48709  -2.45994  -1.20482
 Alpha  occ. eigenvalues --   -0.63597  -0.57645  -0.56151  -0.50552  -0.48194
 Alpha  occ. eigenvalues --   -0.39805  -0.29990
 Alpha virt. eigenvalues --    0.00753   0.01199   0.01914   0.03183   0.04634
 Alpha virt. eigenvalues --    0.04928   0.06331   0.07610   0.07619   0.08014
 Alpha virt. eigenvalues --    0.08437   0.08579   0.12853   0.14424   0.16745

 Mulliken charges and spin densities:
               1          2
     1  Cr   1.042781   3.837987
     2  O   -1.042781   0.162013
 Sum of Mulliken charges =  -0.00000   4.00000

 Dipole moment (field-independent basis, Debye):
    X=              0.0000    Y=              0.0000    Z=              4.4345  Tot=              4.4345
 Quadrupole moment (field-independent basis, Debye-Ang):
   XX=            -20.8700   YY=            -19.7719   ZZ=            -24.5201
   XY=              0.0000   XZ=              0.0000   YZ=              0.0000

 \\#P ROCCSD(T)=(maxcyc=150, Full, SaveAmplitudes, ReadAmplitudes)/Gen
 102.6891958\CCSD(T)=-102.7369364\RMSD=9.358e-09\PG=C*V [C*(O1Cr1)]\\@
 Normal termination of Gaussian 16 at Tue Mar 13 04:10:06 2018.
