 Gaussian 16, Revision A.03,
 Gaussian 16:  ES64L-G16RevA.03 25-Dec-2016

 ----------------------------------------------------------------------
 #P ROCCSD(T)=(MaxCyc=150, Full)/Gen SCF=(maxcycle=400) Integral(DKHSO,
  NoXCTest) Pop=Regular MaxDisk=500GB Guess=Read IOp(5/15=2)
 ----------------------------------------------------------------------

 ---
 ZnO
 ---
 Symbolic Z-matrix:
 Charge =  0 Multiplicity = 1

                         Standard orientation:
 ---------------------------------------------------------------------
 Center     Atomic      Atomic             Coordinates (Angstroms)
 Number     Number       Type             X           Y           Z
 ---------------------------------------------------------------------
      1         30           0        0.000000    0.000000    0.357895
      2          8           0        0.000000    0.000000   -1.342105
 ---------------------------------------------------------------------

 SCF Done:  E(ROHF) =  -1869.08018661     A.U. after   11 cycles
 E2 =    -0.1914672477D+01 EUMP2 =    -0.18709948590839D+04
 CCSD(T)
 CCSD(T)= -0.18709083268D+04

 The electronic state is 1-SG.
 Alpha  occ. eigenvalues -- -357.61964 -45.38715 -39.19068 -39.19068 -39.18803
 Alpha  occ. eigenvalues --  -20.51040  -5.85668  -3.93678  -3.93527  -3.93527
 Alpha  occ. eigenvalues --   -1.15383  -0.82736  -0.82736  -0.82151  -0.82151
 Alpha  occ. eigenvalues --   -0.80335  -0.40101  -0.40101  -0.37448
 Alpha virt. eigenvalues --   -0.04714   0.02368   0.02368   0.02418   0.04192
 Alpha virt. eigenvalues --    0.07689   0.07689   0.11905   0.16513   0.17506
 Alpha virt. eigenvalues --    0.17758   0.17758   0.20490   0.20490   0.23225

 Mulliken charges and spin densities:
               1          2
     1  Zn   0.945616   0.000000
     2  O   -0.945616   0.000000
 Sum of Mulliken charges =  -0.00000   0.00000

 Dipole moment (field-independent basis, Debye):
    X=              0.0000    Y=              0.0000    Z=              7.0654  Tot=              7.0654
 Quadrupole moment (field-independent basis, Debye-Ang):
   XX=            -18.3707   YY=            -18.3707   ZZ=            -21.9138
   XY=              0.0000   XZ=              0.0000   YZ=              0.0000

 P ROCCSD(T)=(MaxCyc=150, Full)/Gen SCF=(maxcycle=400) Integral(DKHSO,
 -0=-1870.9948591\MP4SDQ=-1870.9042847\CCSD=-1870.854923\CCSD(T)=-1870.
 Normal termination of Gaussian 16 at Sat Mar 17 05:47:24 2018.
