 Gaussian 16, Revision A.03,
 Gaussian 16:  ES64L-G16RevA.03 25-Dec-2016

 ----------------------------------------------------------------------
 #P ROCCSD(T)=(maxcyc=150, Full)/Gen 5d 7f SCF=(maxcycles=300) Integral
 (NoXCTest) MaxDisk=500GB Pop=Regular Pseudo=Read IOp(5/15=2) Guess=Rea
 d
 ----------------------------------------------------------------------

 ---
 ScH
 ---
 Symbolic Z-matrix:
 Charge =  0 Multiplicity = 1

                         Standard orientation:
 ---------------------------------------------------------------------
 Center     Atomic      Atomic             Coordinates (Angstroms)
 Number     Number       Type             X           Y           Z
 ---------------------------------------------------------------------
      1         21           0        0.000000    0.000000    0.059091
      2          1           0        0.000000    0.000000   -1.240909
 ---------------------------------------------------------------------

 SCF Done:  E(ROHF) =  -46.7180680745     A.U. after    8 cycles
 E2 =    -0.4437048837D+00 EUMP2 =    -0.47161772958185D+02
 CCSD(T)
 CCSD(T)= -0.47198304893D+02

 The electronic state is 1-SG.
 Alpha  occ. eigenvalues --   -2.69221  -1.62721  -1.59838  -1.59838  -0.46161
 Alpha  occ. eigenvalues --   -0.21696
 Alpha virt. eigenvalues --    0.01276   0.01276   0.01412   0.01680   0.02613
 Alpha virt. eigenvalues --    0.02613   0.02634   0.02634   0.02635   0.04091
 Alpha virt. eigenvalues --    0.04327   0.04327   0.07019   0.07415   0.07415

 Mulliken charges and spin densities:
               1          2
     1  Sc   0.346831   0.000000
     2  H   -0.346831   0.000000
 Sum of Mulliken charges =  -0.00000   0.00000

 Dipole moment (field-independent basis, Debye):
    X=              0.0000    Y=              0.0000    Z=              0.6148  Tot=              0.6148
 Quadrupole moment (field-independent basis, Debye-Ang):
   XX=            -23.5667   YY=            -23.5667   ZZ=            -23.2251
   XY=              0.0000   XZ=              0.0000   YZ=              0.0000

 P ROCCSD(T)=(maxcyc=150, Full)/Gen 5d 7f SCF=(maxcycles=300) Integral(
 MP2-0=-47.161773\MP4SDQ=-47.1796116\CCSD=-47.1792059\CCSD(T)=-47.19830
 Normal termination of Gaussian 16 at Tue Feb 13 21:57:51 2018.
