 Gaussian 16, Revision A.03,
 Gaussian 16:  ES64L-G16RevA.03 25-Dec-2016

 ----------------------------------------------------------------------
 #P ROCCSD(T)=(MaxCyc=150, Full)/Gen SCF=(maxcycle=400) Pseudo=Read Int
 egral(NoXCTest) Pop=Regular MaxDisk=500GB Guess=Read IOp(5/15=2)
 ----------------------------------------------------------------------

 ---
 CuO
 ---
 Symbolic Z-matrix:
 Charge =  0 Multiplicity = 2

                         Standard orientation:
 ---------------------------------------------------------------------
 Center     Atomic      Atomic             Coordinates (Angstroms)
 Number     Number       Type             X           Y           Z
 ---------------------------------------------------------------------
      1         29           0        0.000000    0.000000    0.345946
      2          8           0        0.000000    0.000000   -1.254054
 ---------------------------------------------------------------------

 SCF Done:  E(ROHF) =  -211.672804226     A.U. after   20 cycles
 E2 =    -0.1372895821D+01 EUMP2 =    -0.21304570004709D+03
 CCSD(T)
 CCSD(T)= -0.21297313936D+03

 Unable to determine electronic state:  an orbital has unidentified symmetry.
 Alpha  occ. eigenvalues --   -5.28408  -3.40796  -3.39935  -3.39505  -1.26259
 Alpha  occ. eigenvalues --   -0.61027  -0.57572  -0.56668  -0.53032  -0.53030
 Alpha  occ. eigenvalues --   -0.47767  -0.42106  -0.39293
 Alpha virt. eigenvalues --   -0.00861   0.02613   0.02746   0.03589   0.04573
 Alpha virt. eigenvalues --    0.09078   0.09380   0.11899   0.13523   0.13532
 Alpha virt. eigenvalues --    0.14375   0.14407   0.14854   0.19106   0.21542

 Mulliken charges and spin densities:
               1          2
     1  Cu   0.732109   0.033484
     2  O   -0.732109   0.966516
 Sum of Mulliken charges =  -0.00000   1.00000

 Dipole moment (field-independent basis, Debye):
    X=              0.0000    Y=              0.0000    Z=              5.2551  Tot=              5.2551
 Quadrupole moment (field-independent basis, Debye-Ang):
   XX=            -15.8528   YY=            -17.3767   ZZ=            -19.4976
   XY=              0.0000   XZ=              0.0000   YZ=              0.0000

 \\#P ROCCSD(T)=(MaxCyc=150, Full)/Gen SCF=(maxcycle=400) Pseudo=Read I
 57\MP4SDQ=-213.0042773\CCSD=-212.922077\CCSD(T)=-212.9731394\RMSD=2.59
 Normal termination of Gaussian 16 at Mon Mar 26 13:03:10 2018.
