 Gaussian 16, Revision A.03,
 Gaussian 16:  ES64L-G16RevA.03 25-Dec-2016

 ----------------------------------------------------------------------
 #P ROCCSD(T)=(MaxCyc=150, Full)/Gen SCF=(maxcycle=400) Pseudo=Read Int
 egral(NoXCTest) Pop=Regular MaxDisk=500GB Guess=Read IOp(5/15=2)
 ----------------------------------------------------------------------

 ---
 CuO
 ---
 Symbolic Z-matrix:
 Charge =  0 Multiplicity = 2

                         Standard orientation:
 ---------------------------------------------------------------------
 Center     Atomic      Atomic             Coordinates (Angstroms)
 Number     Number       Type             X           Y           Z
 ---------------------------------------------------------------------
      1         29           0        0.000000    0.000000    0.345946
      2          8           0        0.000000    0.000000   -1.254054
 ---------------------------------------------------------------------

 SCF Done:  E(ROHF) =  -211.668228865     A.U. after   21 cycles
 E2 =    -0.1308687564D+01 EUMP2 =    -0.21297691642909D+03
 CCSD(T)
 CCSD(T)= -0.21290731827D+03

 Unable to determine electronic state:  an orbital has unidentified symmetry.
 Alpha  occ. eigenvalues --   -5.28428  -3.40829  -3.39962  -3.39528  -1.26311
 Alpha  occ. eigenvalues --   -0.61023  -0.57569  -0.56683  -0.53029  -0.53027
 Alpha  occ. eigenvalues --   -0.47768  -0.42106  -0.39306
 Alpha virt. eigenvalues --   -0.00855   0.02940   0.03105   0.04036   0.04828
 Alpha virt. eigenvalues --    0.10591   0.10982   0.13714   0.19423   0.19738
 Alpha virt. eigenvalues --    0.19760   0.21151   0.21577   0.22610   0.26028

 Mulliken charges and spin densities:
               1          2
     1  Cu   0.844719   0.031569
     2  O   -0.844719   0.968431
 Sum of Mulliken charges =   0.00000   1.00000

 Dipole moment (field-independent basis, Debye):
    X=              0.0000    Y=              0.0000    Z=              5.2698  Tot=              5.2698
 Quadrupole moment (field-independent basis, Debye-Ang):
   XX=            -15.8622   YY=            -17.4031   ZZ=            -19.4845
   XY=              0.0000   XZ=              0.0000   YZ=              0.0000

 \\#P ROCCSD(T)=(MaxCyc=150, Full)/Gen SCF=(maxcycle=400) Pseudo=Read I
 .9769164\MP4SDQ=-212.9418025\CCSD=-212.8588371\CCSD(T)=-212.9073183\RM
 Normal termination of Gaussian 16 at Mon Mar 26 10:35:15 2018.
