 Gaussian 16, Revision A.03,
 Gaussian 16:  ES64L-G16RevA.03 25-Dec-2016

 ----------------------------------------------------------------------
 #P ROCCSD(T)=(MaxCyc=150, Full)/Gen SCF=(maxcycle=400) Pseudo=Read Int
 egral(NoXCTest) Pop=Regular MaxDisk=500GB Guess=Read IOp(5/15=2)
 ----------------------------------------------------------------------

 ---
 CoO
 ---
 Symbolic Z-matrix:
 Charge =  0 Multiplicity = 4

                         Standard orientation:
 ---------------------------------------------------------------------
 Center     Atomic      Atomic             Coordinates (Angstroms)
 Number     Number       Type             X           Y           Z
 ---------------------------------------------------------------------
      1         27           0        0.000000    0.000000    0.342857
      2          8           0        0.000000    0.000000   -1.157143
 ---------------------------------------------------------------------

 SCF Done:  E(ROHF) =  -160.306436234     A.U. after   23 cycles
 E2 =    -0.1089535055D+01 EUMP2 =    -0.16139597128886D+03
 CCSD(T)
 CCSD(T)= -0.16141476495D+03

 Unable to determine electronic state:  partially filled degenerate orbitals.
 Alpha  occ. eigenvalues --   -4.83739  -3.28859  -3.27813  -3.27813  -1.21138
 Alpha  occ. eigenvalues --   -0.77297  -0.77297  -0.74835  -0.69789  -0.66911
 Alpha  occ. eigenvalues --   -0.40546  -0.40546  -0.36461
 Alpha virt. eigenvalues --   -0.03631   0.02392   0.02392   0.02680   0.04109
 Alpha virt. eigenvalues --    0.08265   0.08265   0.10012   0.10987   0.11014
 Alpha virt. eigenvalues --    0.11794   0.11794   0.14849   0.15860   0.26167

 Mulliken charges and spin densities:
               1          2
     1  Co   1.035510   2.851665
     2  O   -1.035510   0.148335
 Sum of Mulliken charges =  -0.00000   3.00000

 Dipole moment (field-independent basis, Debye):
    X=              0.0000    Y=              0.0000    Z=              6.8976  Tot=              6.8976
 Quadrupole moment (field-independent basis, Debye-Ang):
   XX=            -18.9624   YY=            -18.9624   ZZ=            -20.7233
   XY=              0.0000   XZ=              0.0000   YZ=              0.0000

 \\#P ROCCSD(T)=(MaxCyc=150, Full)/Gen SCF=(maxcycle=400) Pseudo=Read I
 .3959713\MP4SDQ=-161.3734466\CCSD=-161.3614818\CCSD(T)=-161.4147649\RM
 Normal termination of Gaussian 16 at Sat Mar 31 14:38:04 2018.
