 Gaussian 16, Revision A.03,
 Gaussian 16:  ES64L-G16RevA.03 25-Dec-2016

 ----------------------------------------------------------------------
 #P ROCCSD(T)=(MaxCyc=150, Full)/Gen SCF=(maxcycle=400) Pseudo=Read Int
 egral(NoXCTest) Pop=Regular MaxDisk=500GB Guess=Read IOp(5/15=2)
 ----------------------------------------------------------------------

 ---
 CoO
 ---
 Symbolic Z-matrix:
 Charge =  0 Multiplicity = 4

                         Standard orientation:
 ---------------------------------------------------------------------
 Center     Atomic      Atomic             Coordinates (Angstroms)
 Number     Number       Type             X           Y           Z
 ---------------------------------------------------------------------
      1         27           0        0.000000    0.000000    0.342857
      2          8           0        0.000000    0.000000   -1.157143
 ---------------------------------------------------------------------

 SCF Done:  E(ROHF) =  -160.309366556     A.U. after   22 cycles
 E2 =    -0.1141794955D+01 EUMP2 =    -0.16145116151110D+03
 CCSD(T)
 CCSD(T)= -0.16146729649D+03

 Unable to determine electronic state:  partially filled degenerate orbitals.
 Alpha  occ. eigenvalues --   -4.83731  -3.28839  -3.27797  -3.27797  -1.21092
 Alpha  occ. eigenvalues --   -0.77294  -0.77294  -0.74830  -0.69787  -0.66901
 Alpha  occ. eigenvalues --   -0.40553  -0.40553  -0.36446
 Alpha virt. eigenvalues --   -0.03625   0.02076   0.02076   0.02419   0.03715
 Alpha virt. eigenvalues --    0.06927   0.06927   0.07076   0.07206   0.07215
 Alpha virt. eigenvalues --    0.08727   0.08727   0.12821   0.14765   0.21351

 Mulliken charges and spin densities:
               1          2
     1  Co   0.972243   2.853615
     2  O   -0.972243   0.146385
 Sum of Mulliken charges =  -0.00000   3.00000

 Dipole moment (field-independent basis, Debye):
    X=              0.0000    Y=              0.0000    Z=              6.8865  Tot=              6.8865
 Quadrupole moment (field-independent basis, Debye-Ang):
   XX=            -18.9608   YY=            -18.9608   ZZ=            -20.7053
   XY=              0.0000   XZ=              0.0000   YZ=              0.0000

 \\#P ROCCSD(T)=(MaxCyc=150, Full)/Gen SCF=(maxcycle=400) Pseudo=Read I
 4511615\MP4SDQ=-161.4229217\CCSD=-161.411682\CCSD(T)=-161.4672965\RMSD
 Normal termination of Gaussian 16 at Sat Mar 31 16:56:04 2018.
