 Gaussian 16, Revision A.03,
 Gaussian 16:  ES64L-G16RevA.03 25-Dec-2016

 ----------------------------------------------------------------------
 #P ROCCSD(T)=(maxcyc=150, Full)/Gen 5d 7f SCF=(maxcycles=300) Integral
 (NoXCTest) MaxDisk=500GB Pop=Regular Pseudo=Read
 ----------------------------------------------------------------------

 ---
 MnH
 ---
 Symbolic Z-matrix:
 Charge =  0 Multiplicity = 7

                         Standard orientation:
 ---------------------------------------------------------------------
 Center     Atomic      Atomic             Coordinates (Angstroms)
 Number     Number       Type             X           Y           Z
 ---------------------------------------------------------------------
      1         25           0        0.000000    0.000000    0.076923
      2          1           0        0.000000    0.000000   -1.923077
 ---------------------------------------------------------------------

 SCF Done:  E(ROHF) =  -104.055465306     A.U. after   23 cycles
 E2 =    -0.5629392340D+00 EUMP2 =    -0.10461840454022D+03
 CCSD(T)
 CCSD(T)= -0.10464311403D+03

 The electronic state is 7-SG.
 Alpha  occ. eigenvalues --   -4.17681  -2.82436  -2.82436  -2.82153  -0.65795
 Alpha  occ. eigenvalues --   -0.65795  -0.65109  -0.65109  -0.65064  -0.38712
 Alpha  occ. eigenvalues --   -0.27053
 Alpha virt. eigenvalues --    0.00994   0.00994   0.02296   0.03137   0.05486
 Alpha virt. eigenvalues --    0.05486   0.07962   0.08379   0.08379   0.08876
 Alpha virt. eigenvalues --    0.08876   0.10346   0.13324   0.18153   0.22308

 Mulliken charges and spin densities:
               1          2
     1  Mn   0.430057   5.955311
     2  H   -0.430057   0.044689
 Sum of Mulliken charges =  -0.00000   6.00000

 Dipole moment (field-independent basis, Debye):
    X=              0.0000    Y=              0.0000    Z=              2.4082  Tot=              2.4082
 Quadrupole moment (field-independent basis, Debye-Ang):
   XX=            -16.4603   YY=            -16.4603   ZZ=            -28.0184
   XY=              0.0000   XZ=              0.0000   YZ=              0.0000

 \\#P ROCCSD(T)=(maxcyc=150, Full)/Gen 5d 7f SCF=(maxcycles=300) Integr
 45\MP4SDQ=-104.6265021\CCSD=-104.6278571\CCSD(T)=-104.643114\RMSD=8.27
 Normal termination of Gaussian 16 at Tue Feb 13 13:36:53 2018.
