 Gaussian 16, Revision A.03,
 Gaussian 16:  ES64L-G16RevA.03 25-Dec-2016

 ----------------------------------------------------------------------
 #P ROCCSD(T)=(maxcyc=150, Full, SaveAmplitudes, ReadAmplitudes)/Gen 5d
  7f SCF=(maxcycles=300) Integral(NoXCTest, DKHSO) MaxDisk=500GB Pop=Re
 gular Guess=Read
 ----------------------------------------------------------------------

 ---
 TiO
 ---
 Symbolic Z-matrix:
 Charge =  0 Multiplicity = 3

                         Standard orientation:
 ---------------------------------------------------------------------
 Center     Atomic      Atomic             Coordinates (Angstroms)
 Number     Number       Type             X           Y           Z
 ---------------------------------------------------------------------
      1         22           0        0.000000    0.000000    0.453333
      2          8           0        0.000000    0.000000   -1.246667
 ---------------------------------------------------------------------

 SCF Done:  E(ROHF) =  -927.707323495     A.U. after   20 cycles
 E2 =    -0.1204907374D+01 EUMP2 =    -0.92891223086898D+03
 CCSD(T)
 CCSD(T)= -0.92893490673D+03

 Unable to determine electronic state:  an orbital has unidentified symmetry.
 Alpha  occ. eigenvalues -- -184.48050 -21.75069 -20.49880 -17.91678 -17.91678
 Alpha  occ. eigenvalues --  -17.91543  -3.01175  -1.92095  -1.92095  -1.89611
 Alpha  occ. eigenvalues --   -1.14089  -0.47772  -0.45056  -0.42030  -0.42030
 Alpha  occ. eigenvalues --   -0.27595
 Alpha virt. eigenvalues --   -0.00031  -0.00031   0.01138   0.02260   0.03387
 Alpha virt. eigenvalues --    0.03387   0.03647   0.03737   0.04176   0.04239
 Alpha virt. eigenvalues --    0.04239   0.04738   0.08337   0.10171   0.11440

 Mulliken charges and spin densities:
               1          2
     1  Ti   1.021494   1.973273
     2  O   -1.021494   0.026727
 Sum of Mulliken charges =  -0.00000   2.00000

 Dipole moment (field-independent basis, Debye):
    X=              0.0000    Y=             -0.0000    Z=              5.1318  Tot=              5.1318
 Quadrupole moment (field-independent basis, Debye-Ang):
   XX=            -21.9518   YY=            -21.9518   ZZ=            -30.2143
   XY=              0.0000   XZ=              0.0000   YZ=              0.0000

 \\#P ROCCSD(T)=(maxcyc=150, Full, SaveAmplitudes, ReadAmplitudes)/Gen
 =-928.9122309\CCSD=-928.8839713\CCSD(T)=-928.9349067\RMSD=3.193e-09\PG
 Normal termination of Gaussian 16 at Wed Mar  7 04:16:16 2018.
