 Gaussian 16, Revision A.03,
 Gaussian 16:  ES64L-G16RevA.03 25-Dec-2016

 ----------------------------------------------------------------------
 #P ROCCSD(T)=(MaxCyc=150, FrzINGC)/Gen SCF=(maxcycle=400) Integral(DKH
 SO, NoXCTest) Pop=Regular MaxDisk=500GB Guess=Read IOp(5/15=2)
 ----------------------------------------------------------------------

 --
 Ni
 --
 Symbolic Z-matrix:
 Charge =  0 Multiplicity = 3

                         Standard orientation:
 ---------------------------------------------------------------------
 Center     Atomic      Atomic             Coordinates (Angstroms)
 Number     Number       Type             X           Y           Z
 ---------------------------------------------------------------------
      1         28           0        0.000000    0.000000    0.000000
 ---------------------------------------------------------------------

 SCF Done:  E(ROHF) =  -1519.08790537     A.U. after    1 cycles
 E2 =    -0.8292294528D+00 EUMP2 =    -0.15199171348197D+04
 CCSD(T)
 CCSD(T)= -0.15198972834D+04

 Unable to determine electronic state:  an orbital has unidentified symmetry.
 Alpha  occ. eigenvalues -- -308.79528 -38.66190 -33.14459 -33.10530 -33.10530
 Alpha  occ. eigenvalues --   -5.09933  -3.47105  -3.39068  -3.39068  -0.76735
 Alpha  occ. eigenvalues --   -0.76735  -0.72863  -0.68132  -0.68132  -0.28811
 Alpha virt. eigenvalues --    0.02263   0.02420   0.02420   0.03100   0.07713
 Alpha virt. eigenvalues --    0.08123   0.08123   0.12672   0.12672   0.12682
 Alpha virt. eigenvalues --    0.12761   0.12761   0.16521   0.28424   0.29166

 Mulliken charges and spin densities:
               1          2
     1  Ni   0.000000   2.000000
 Sum of Mulliken charges =   0.00000   2.00000

 Dipole moment (field-independent basis, Debye):
    X=              0.0000    Y=              0.0000    Z=              0.0000  Tot=              0.0000
 Quadrupole moment (field-independent basis, Debye-Ang):
   XX=            -16.7891   YY=            -16.5321   ZZ=            -16.7891
   XY=             -0.0000   XZ=             -0.0000   YZ=              0.0000

 P ROCCSD(T)=(MaxCyc=150, FrzINGC)/Gen SCF=(maxcycle=400) Integral(DKHS
 =-1519.8846212\CCSD=-1519.8716587\CCSD(T)=-1519.8972834\RMSD=1.158e-09
 Normal termination of Gaussian 16 at Tue Mar 27 23:24:47 2018.
