 Gaussian 16, Revision A.03,
 Gaussian 16:  ES64L-G16RevA.03 25-Dec-2016

 ----------------------------------------------------------------------
 #P ROCCSD(T)=(maxcyc=150, Full)/Gen 5d 7f SCF=(maxcycles=300) Integral
 (NoXCTest) MaxDisk=500GB Pop=Regular Pseudo=Read IOp(5/15=2) Guess=Rea
 d
 ----------------------------------------------------------------------

 ---
 ScH
 ---
 Symbolic Z-matrix:
 Charge =  0 Multiplicity = 1

                         Standard orientation:
 ---------------------------------------------------------------------
 Center     Atomic      Atomic             Coordinates (Angstroms)
 Number     Number       Type             X           Y           Z
 ---------------------------------------------------------------------
      1         21           0        0.000000    0.000000    0.072727
      2          1           0        0.000000    0.000000   -1.527273
 ---------------------------------------------------------------------

 SCF Done:  E(ROHF) =  -46.7907700354     A.U. after    9 cycles
 E2 =    -0.4325090866D+00 EUMP2 =    -0.47223279121968D+02
 CCSD(T)
 CCSD(T)= -0.47262728519D+02

 The electronic state is 1-SG.
 Alpha  occ. eigenvalues --   -2.70910  -1.64929  -1.64446  -1.64446  -0.42972
 Alpha  occ. eigenvalues --   -0.22683
 Alpha virt. eigenvalues --    0.01212   0.01212   0.01523   0.01655   0.02612
 Alpha virt. eigenvalues --    0.02612   0.02641   0.02641   0.02668   0.04125
 Alpha virt. eigenvalues --    0.04194   0.04194   0.06952   0.07193   0.07193

 Mulliken charges and spin densities:
               1          2
     1  Sc   0.372989   0.000000
     2  H   -0.372989   0.000000
 Sum of Mulliken charges =   0.00000   0.00000

 Dipole moment (field-independent basis, Debye):
    X=              0.0000    Y=              0.0000    Z=              0.9628  Tot=              0.9628
 Quadrupole moment (field-independent basis, Debye-Ang):
   XX=            -23.0646   YY=            -23.0646   ZZ=            -25.1921
   XY=              0.0000   XZ=              0.0000   YZ=              0.0000

 P ROCCSD(T)=(maxcyc=150, Full)/Gen 5d 7f SCF=(maxcycles=300) Integral(
 -0=-47.2232791\MP4SDQ=-47.2436523\CCSD=-47.2434257\CCSD(T)=-47.2627285
 Normal termination of Gaussian 16 at Wed Feb 14 03:21:07 2018.
