 Gaussian 16, Revision A.03,
 Gaussian 16:  ES64L-G16RevA.03 25-Dec-2016

 ----------------------------------------------------------------------
 #P ROCCSD(T)=(MaxCyc=150, Full)/Gen SCF=(maxcycle=400) Pseudo=Read Int
 egral(NoXCTest) Pop=Regular MaxDisk=500GB Guess=Read IOp(5/15=2)
 ----------------------------------------------------------------------

 ---
 CuH
 ---
 Symbolic Z-matrix:
 Charge =  0 Multiplicity = 1

                         Standard orientation:
 ---------------------------------------------------------------------
 Center     Atomic      Atomic             Coordinates (Angstroms)
 Number     Number       Type             X           Y           Z
 ---------------------------------------------------------------------
      1         29           0        0.000000    0.000000    0.033333
      2          1           0        0.000000    0.000000   -0.966667
 ---------------------------------------------------------------------

 SCF Done:  E(ROHF) =  -196.644173002     A.U. after    9 cycles
 E2 =    -0.1210020472D+01 EUMP2 =    -0.19785419347376D+03
 CCSD(T)
 CCSD(T)= -0.19776655875D+03

 The electronic state is 1-SG.
 Alpha  occ. eigenvalues --   -5.00723  -3.43442  -3.40075  -3.40075  -0.63528
 Alpha  occ. eigenvalues --   -0.56941  -0.56941  -0.54146  -0.54146  -0.32356
 Alpha virt. eigenvalues --    0.00832   0.02560   0.02560   0.02569   0.04928
 Alpha virt. eigenvalues --    0.07901   0.08320   0.08320   0.11739   0.11739
 Alpha virt. eigenvalues --    0.11927   0.12626   0.12626   0.14770   0.18927

 Mulliken charges and spin densities:
               1          2
     1  Cu   0.245785   0.000000
     2  H   -0.245785   0.000000
 Sum of Mulliken charges =  -0.00000   0.00000

 Dipole moment (field-independent basis, Debye):
    X=              0.0000    Y=              0.0000    Z=              2.8744  Tot=              2.8744
 Quadrupole moment (field-independent basis, Debye-Ang):
   XX=            -14.4197   YY=            -14.4197   ZZ=            -14.2082
   XY=              0.0000   XZ=              0.0000   YZ=              0.0000

 P ROCCSD(T)=(MaxCyc=150, Full)/Gen SCF=(maxcycle=400) Pseudo=Read Inte
 =-197.8541935\MP4SDQ=-197.7958583\CCSD=-197.7250453\CCSD(T)=-197.76655
 Normal termination of Gaussian 16 at Sun May  6 11:48:06 2018.
