 Gaussian 16, Revision A.03,
 Gaussian 16:  ES64L-G16RevA.03 25-Dec-2016

 ----------------------------------------------------------------------
 #P ROCCSD(T)=(MaxCyc=150, Full)/Gen SCF=(maxcycle=400) Pseudo=Read Int
 egral(NoXCTest) Pop=Regular MaxDisk=500GB Guess=Read IOp(5/15=2)
 ----------------------------------------------------------------------

 ---
 CuH
 ---
 Symbolic Z-matrix:
 Charge =  0 Multiplicity = 1

                         Standard orientation:
 ---------------------------------------------------------------------
 Center     Atomic      Atomic             Coordinates (Angstroms)
 Number     Number       Type             X           Y           Z
 ---------------------------------------------------------------------
      1         29           0        0.000000    0.000000    0.033333
      2          1           0        0.000000    0.000000   -0.966667
 ---------------------------------------------------------------------

 SCF Done:  E(ROHF) =  -196.643977982     A.U. after   12 cycles
 E2 =    -0.1185312384D+01 EUMP2 =    -0.19782929036668D+03
 CCSD(T)
 CCSD(T)= -0.19774394854D+03

 The electronic state is 1-SG.
 Alpha  occ. eigenvalues --   -5.00720  -3.43441  -3.40074  -3.40074  -0.63529
 Alpha  occ. eigenvalues --   -0.56937  -0.56937  -0.54145  -0.54145  -0.32356
 Alpha virt. eigenvalues --    0.00961   0.02649   0.02649   0.02848   0.05796
 Alpha virt. eigenvalues --    0.08686   0.08686   0.09228   0.13151   0.13151
 Alpha virt. eigenvalues --    0.13264   0.14064   0.14064   0.19714   0.23184

 Mulliken charges and spin densities:
               1          2
     1  Cu   0.135316   0.000000
     2  H   -0.135316   0.000000
 Sum of Mulliken charges =  -0.00000   0.00000

 Dipole moment (field-independent basis, Debye):
    X=              0.0000    Y=              0.0000    Z=              2.8757  Tot=              2.8757
 Quadrupole moment (field-independent basis, Debye-Ang):
   XX=            -14.4211   YY=            -14.4211   ZZ=            -14.2063
   XY=              0.0000   XZ=              0.0000   YZ=              0.0000

 P ROCCSD(T)=(MaxCyc=150, Full)/Gen SCF=(maxcycle=400) Pseudo=Read Inte
 =-197.8292904\MP4SDQ=-197.7745022\CCSD=-197.7031625\CCSD(T)=-197.74394
 Normal termination of Gaussian 16 at Sun Apr 22 21:41:21 2018.
