 Gaussian 16, Revision A.03,
 Gaussian 16:  ES64L-G16RevA.03 25-Dec-2016

 ----------------------------------------------------------------------
 #P ROCCSD(T)=(MaxCyc=150, Full)/Gen SCF=(maxcycle=400) Pseudo=Read Int
 egral(NoXCTest) Pop=Regular MaxDisk=500GB Guess=Read IOp(5/15=2)
 ----------------------------------------------------------------------

 ---
 CuH
 ---
 Symbolic Z-matrix:
 Charge =  0 Multiplicity = 1

                         Standard orientation:
 ---------------------------------------------------------------------
 Center     Atomic      Atomic             Coordinates (Angstroms)
 Number     Number       Type             X           Y           Z
 ---------------------------------------------------------------------
      1         29           0        0.000000    0.000000    0.033333
      2          1           0        0.000000    0.000000   -0.966667
 ---------------------------------------------------------------------

 SCF Done:  E(ROHF) =  -196.640570091     A.U. after   11 cycles
 E2 =    -0.1133684997D+01 EUMP2 =    -0.19777425508744D+03
 CCSD(T)
 CCSD(T)= -0.19769045788D+03

 The electronic state is 1-SG.
 Alpha  occ. eigenvalues --   -5.00760  -3.43479  -3.40107  -3.40107  -0.63529
 Alpha  occ. eigenvalues --   -0.56929  -0.56929  -0.54137  -0.54137  -0.32359
 Alpha virt. eigenvalues --    0.01023   0.02917   0.02917   0.03125   0.06285
 Alpha virt. eigenvalues --    0.09927   0.09927   0.10112   0.17329   0.18890
 Alpha virt. eigenvalues --    0.18890   0.20593   0.20593   0.22178   0.26091

 Mulliken charges and spin densities:
               1          2
     1  Cu   0.250775   0.000000
     2  H   -0.250775   0.000000
 Sum of Mulliken charges =  -0.00000   0.00000

 Dipole moment (field-independent basis, Debye):
    X=              0.0000    Y=              0.0000    Z=              2.8815  Tot=              2.8815
 Quadrupole moment (field-independent basis, Debye-Ang):
   XX=            -14.4276   YY=            -14.4276   ZZ=            -14.1963
   XY=              0.0000   XZ=              0.0000   YZ=              0.0000

 P ROCCSD(T)=(MaxCyc=150, Full)/Gen SCF=(maxcycle=400) Pseudo=Read Inte
 0=-197.7742551\MP4SDQ=-197.7238882\CCSD=-197.6516449\CCSD(T)=-197.6904
 Normal termination of Gaussian 16 at Sun Apr 22 21:23:46 2018.
