 Gaussian 16, Revision A.03,
 Gaussian 16:  ES64L-G16RevA.03 25-Dec-2016

 ----------------------------------------------------------------------
 #P ROCCSD(T)=(maxcyc=150, Full)/Gen 5d 7f SCF=(maxcycles=300) Integral
 (NoXCTest) MaxDisk=500GB Pop=Regular Pseudo=Read IOp(5/15=2) Guess=Rea
 d
 ----------------------------------------------------------------------

 ---
 ScH
 ---
 Symbolic Z-matrix:
 Charge =  0 Multiplicity = 1

                         Standard orientation:
 ---------------------------------------------------------------------
 Center     Atomic      Atomic             Coordinates (Angstroms)
 Number     Number       Type             X           Y           Z
 ---------------------------------------------------------------------
      1         21           0        0.000000    0.000000    0.077273
      2          1           0        0.000000    0.000000   -1.622727
 ---------------------------------------------------------------------

 SCF Done:  E(ROHF) =  -46.7962943123     A.U. after   10 cycles
 E2 =    -0.4226003233D+00 EUMP2 =    -0.47218894635594D+02
 CCSD(T)
 CCSD(T)= -0.47261293245D+02

 The electronic state is 1-SG.
 Alpha  occ. eigenvalues --   -2.72089  -1.65734  -1.65570  -1.65570  -0.41737
 Alpha  occ. eigenvalues --   -0.23020
 Alpha virt. eigenvalues --    0.01174   0.01174   0.01543   0.01922   0.02859
 Alpha virt. eigenvalues --    0.02859   0.02919   0.02919   0.02939   0.04173
 Alpha virt. eigenvalues --    0.04173   0.04368   0.07528   0.07528   0.07943

 Mulliken charges and spin densities:
               1          2
     1  Sc   0.263731   0.000000
     2  H   -0.263731   0.000000
 Sum of Mulliken charges =  -0.00000   0.00000

 Dipole moment (field-independent basis, Debye):
    X=              0.0000    Y=              0.0000    Z=              1.2061  Tot=              1.2061
 Quadrupole moment (field-independent basis, Debye-Ang):
   XX=            -22.9673   YY=            -22.9673   ZZ=            -25.9485
   XY=              0.0000   XZ=              0.0000   YZ=              0.0000

 P ROCCSD(T)=(maxcyc=150, Full)/Gen 5d 7f SCF=(maxcycles=300) Integral(
 PMP2-0=-47.2188946\MP4SDQ=-47.2423836\CCSD=-47.2422318\CCSD(T)=-47.261
 Normal termination of Gaussian 16 at Wed Feb 14 03:49:54 2018.
