 Gaussian 16, Revision A.03,
 Gaussian 16:  ES64L-G16RevA.03 25-Dec-2016

 ----------------------------------------------------------------------
 #P ROCCSD(T)=(maxcyc=150, Full, SaveAmplitudes, ReadAmplitudes)/Gen 5d
  7f SCF=(maxcycles=300, VShift=400) Integral(NoXCTest) MaxDisk=500GB P
 op=Full Pseudo=Read Guess=Read IOp(5/15=2)
 ----------------------------------------------------------------------

 ---
 MnO
 ---
 Symbolic Z-matrix:
 Charge =  0 Multiplicity = 6

                         Standard orientation:
 ---------------------------------------------------------------------
 Center     Atomic      Atomic             Coordinates (Angstroms)
 Number     Number       Type             X           Y           Z
 ---------------------------------------------------------------------
      1         25           0        0.000000    0.000000    0.315152
      2          8           0        0.000000    0.000000   -0.984848
 ---------------------------------------------------------------------

 SCF Done:  E(ROHF) =  -118.747036515     A.U. after   47 cycles
 E2 =    -0.9350022666D+00 EUMP2 =    -0.11968203878188D+03
 CCSD(T)
 CCSD(T)= -0.11968827682D+03

 The electronic state is 6-SG.
 Alpha  occ. eigenvalues --   -4.12374  -2.74093  -2.73906  -2.73906  -1.27511
 Alpha  occ. eigenvalues --   -0.73380  -0.73380  -0.61372  -0.61372  -0.60107
 Alpha  occ. eigenvalues --   -0.40669  -0.40669  -0.30142
 Alpha virt. eigenvalues --    0.01909   0.02422   0.02422   0.03170   0.06417
 Alpha virt. eigenvalues --    0.07600   0.07600   0.08765   0.08765   0.09365
 Alpha virt. eigenvalues --    0.09365   0.10264   0.12082   0.16448   0.24590

 Mulliken charges and spin densities:
               1          2
     1  Mn   0.802329   4.760055
     2  O   -0.802329   0.239945
 Sum of Mulliken charges =  -0.00000   5.00000

 Dipole moment (field-independent basis, Debye):
    X=              0.0000    Y=              0.0000    Z=              2.7372  Tot=              2.7372
 Quadrupole moment (field-independent basis, Debye-Ang):
   XX=            -19.8436   YY=            -19.8436   ZZ=            -22.9102
   XY=              0.0000   XZ=              0.0000   YZ=              0.0000

 \\#P ROCCSD(T)=(maxcyc=150, Full, SaveAmplitudes, ReadAmplitudes)/Gen
 4SDQ=-119.6633877\CCSD=-119.648581\CCSD(T)=-119.6882768\RMSD=8.420e-09
 Normal termination of Gaussian 16 at Sat May  5 07:10:21 2018.
