 Gaussian 16, Revision A.03,
 Gaussian 16:  ES64L-G16RevA.03 25-Dec-2016

 ----------------------------------------------------------------------
 #P ROCCSD(T)=(maxcyc=150, Full, ReadAmplitudes)/Gen 5d 7f SCF=(maxcycl
 es=300) Integral(NoXCTest) MaxDisk=500GB Pop=Regular Pseudo=Read Guess
 =Read
 ----------------------------------------------------------------------

 ---
 CrH
 ---
 Symbolic Z-matrix:
 Charge =  0 Multiplicity = 6

                         Standard orientation:
 ---------------------------------------------------------------------
 Center     Atomic      Atomic             Coordinates (Angstroms)
 Number     Number       Type             X           Y           Z
 ---------------------------------------------------------------------
      1         24           0        0.000000    0.000000    0.072000
      2          1           0        0.000000    0.000000   -1.728000
 ---------------------------------------------------------------------

 SCF Done:  E(ROHF) =  -86.8784218492     A.U. after   22 cycles
 E2 =    -0.5788287852D+00 EUMP2 =    -0.87457250634394D+02
 CCSD(T)
 CCSD(T)= -0.87504287775D+02

 The electronic state is 6-SG.
 Alpha  occ. eigenvalues --   -3.68599  -2.45023  -2.45023  -2.40107  -0.55807
 Alpha  occ. eigenvalues --   -0.55807  -0.52392  -0.52392  -0.39837  -0.26345
 Alpha virt. eigenvalues --    0.01105   0.01105   0.01854   0.02299   0.04363
 Alpha virt. eigenvalues --    0.04674   0.04674   0.04918   0.04918   0.05218
 Alpha virt. eigenvalues --    0.05218   0.06462   0.08578   0.11268   0.15157

 Mulliken charges and spin densities:
               1          2
     1  Cr   0.348744   4.971943
     2  H   -0.348744   0.028057
 Sum of Mulliken charges =  -0.00000   5.00000

 Dipole moment (field-independent basis, Debye):
    X=              0.0000    Y=              0.0000    Z=              2.2979  Tot=              2.2979
 Quadrupole moment (field-independent basis, Debye-Ang):
   XX=            -16.9608   YY=            -16.9608   ZZ=            -25.2215
   XY=              0.0000   XZ=              0.0000   YZ=              0.0000

 \\#P ROCCSD(T)=(maxcyc=150, Full, ReadAmplitudes)/Gen 5d 7f SCF=(maxcy
 7.4572506\CCSD=-87.4864327\CCSD(T)=-87.5042878\RMSD=4.384e-09\PG=C*V [
 Normal termination of Gaussian 16 at Mon Feb 26 13:01:05 2018.
