 Gaussian 16, Revision A.03,
 Gaussian 16:  ES64L-G16RevA.03 25-Dec-2016

 ----------------------------------------------------------------------
 #P ROCCSD(T)=(maxcyc=150, Full, SaveAmplitudes, ReadAmplitudes)/Gen 5d
  7f SCF=(maxcycles=300, VShift=400) Integral(NoXCTest) MaxDisk=500GB P
 op=Full Pseudo=Read Guess=Read IOp(5/15=2)
 ----------------------------------------------------------------------

 ---
 MnH
 ---
 Symbolic Z-matrix:
 Charge =  0 Multiplicity = 7

                         Standard orientation:
 ---------------------------------------------------------------------
 Center     Atomic      Atomic             Coordinates (Angstroms)
 Number     Number       Type             X           Y           Z
 ---------------------------------------------------------------------
      1         25           0        0.000000    0.000000    0.073077
      2          1           0        0.000000    0.000000   -1.826923
 ---------------------------------------------------------------------

 SCF Done:  E(ROHF) =  -103.798152070     A.U. after   33 cycles
 E2 =    -0.5697327574D+00 EUMP2 =    -0.10436788482775D+03
 CCSD(T)
 CCSD(T)= -0.10439133328D+03

 The electronic state is 7-SG.
 Alpha  occ. eigenvalues --   -4.15863  -2.77957  -2.77957  -2.77700  -0.65364
 Alpha  occ. eigenvalues --   -0.65364  -0.64729  -0.64669  -0.64669  -0.39461
 Alpha  occ. eigenvalues --   -0.26751
 Alpha virt. eigenvalues --    0.01105   0.01105   0.02326   0.03120   0.05591
 Alpha virt. eigenvalues --    0.05591   0.08090   0.08414   0.08414   0.08903
 Alpha virt. eigenvalues --    0.08903   0.10163   0.13532   0.18685   0.22488

 Mulliken charges and spin densities:
               1          2
     1  Mn   0.428326   5.956523
     2  H   -0.428326   0.043477
 Sum of Mulliken charges =  -0.00000   6.00000

 Dipole moment (field-independent basis, Debye):
    X=              0.0000    Y=              0.0000    Z=              2.0390  Tot=              2.0390
 Quadrupole moment (field-independent basis, Debye-Ang):
   XX=            -16.3736   YY=            -16.3736   ZZ=            -27.4035
   XY=              0.0000   XZ=              0.0000   YZ=              0.0000

 \\#P ROCCSD(T)=(maxcyc=150, Full, SaveAmplitudes, ReadAmplitudes)/Gen
 4SDQ=-104.3747568\CCSD=-104.3757648\CCSD(T)=-104.3913333\RMSD=8.952e-0
 Normal termination of Gaussian 16 at Sat May  5 11:36:23 2018.
