 Gaussian 16, Revision A.03,
 Gaussian 16:  ES64L-G16RevA.03 25-Dec-2016

 ----------------------------------------------------------------------
 #P ROCCSD(T)=(maxcyc=150, Full)/Gen 5d 7f SCF=(maxcycles=300) Integral
 (NoXCTest) MaxDisk=500GB Pop=Regular Pseudo=Read IOp(5/15=2) Guess=Rea
 d
 ----------------------------------------------------------------------

 ---
 ScH
 ---
 Symbolic Z-matrix:
 Charge =  0 Multiplicity = 1

                         Standard orientation:
 ---------------------------------------------------------------------
 Center     Atomic      Atomic             Coordinates (Angstroms)
 Number     Number       Type             X           Y           Z
 ---------------------------------------------------------------------
      1         21           0        0.000000    0.000000    0.059091
      2          1           0        0.000000    0.000000   -1.240909
 ---------------------------------------------------------------------

 SCF Done:  E(ROHF) =  -46.7271449945     A.U. after   11 cycles
 E2 =    -0.4313194422D+00 EUMP2 =    -0.47158464436699D+02
 CCSD(T)
 CCSD(T)= -0.47196563009D+02

 The electronic state is 1-SG.
 Alpha  occ. eigenvalues --   -2.66803  -1.63273  -1.60358  -1.60358  -0.46140
 Alpha  occ. eigenvalues --   -0.21779
 Alpha virt. eigenvalues --    0.01318   0.01318   0.01488   0.01933   0.02890
 Alpha virt. eigenvalues --    0.02890   0.02898   0.02898   0.02903   0.04445
 Alpha virt. eigenvalues --    0.04445   0.04448   0.07916   0.08241   0.08241

 Mulliken charges and spin densities:
               1          2
     1  Sc   0.265765   0.000000
     2  H   -0.265765   0.000000
 Sum of Mulliken charges =   0.00000   0.00000

 Dipole moment (field-independent basis, Debye):
    X=              0.0000    Y=              0.0000    Z=              0.6504  Tot=              0.6504
 Quadrupole moment (field-independent basis, Debye-Ang):
   XX=            -23.4116   YY=            -23.4116   ZZ=            -23.0009
   XY=              0.0000   XZ=              0.0000   YZ=              0.0000

 P ROCCSD(T)=(maxcyc=150, Full)/Gen 5d 7f SCF=(maxcycles=300) Integral(
 P2-0=-47.1584644\MP4SDQ=-47.1785549\CCSD=-47.1780534\CCSD(T)=-47.19656
 Normal termination of Gaussian 16 at Tue Feb 13 21:07:50 2018.
