 Gaussian 16, Revision A.03,
 Gaussian 16:  ES64L-G16RevA.03 25-Dec-2016

 ----------------------------------------------------------------------
 #P ROCCSD(T)=(maxcyc=150, Full, SaveAmplitudes, ReadAmplitudes)/Gen 5d
  7f SCF=(maxcycles=300, VShift=400) Integral(NoXCTest) MaxDisk=500GB P
 op=Full Pseudo=Read Guess=Read IOp(5/15=2)
 ----------------------------------------------------------------------

 ---
 MnH
 ---
 Symbolic Z-matrix:
 Charge =  0 Multiplicity = 7

                         Standard orientation:
 ---------------------------------------------------------------------
 Center     Atomic      Atomic             Coordinates (Angstroms)
 Number     Number       Type             X           Y           Z
 ---------------------------------------------------------------------
      1         25           0        0.000000    0.000000    0.073077
      2          1           0        0.000000    0.000000   -1.826923
 ---------------------------------------------------------------------

 SCF Done:  E(ROHF) =  -104.253631023     A.U. after   32 cycles
 E2 =    -0.5720163512D+00 EUMP2 =    -0.10482564737456D+03
 CCSD(T)
 CCSD(T)= -0.10484905054D+03

 The electronic state is 7-SG.
 Alpha  occ. eigenvalues --   -4.15090  -2.77920  -2.77920  -2.77677  -0.66246
 Alpha  occ. eigenvalues --   -0.66246  -0.65618  -0.65570  -0.65570  -0.39383
 Alpha  occ. eigenvalues --   -0.26684
 Alpha virt. eigenvalues --    0.01106   0.01106   0.02330   0.03119   0.05600
 Alpha virt. eigenvalues --    0.05600   0.08076   0.08405   0.08405   0.08896
 Alpha virt. eigenvalues --    0.08896   0.10165   0.13552   0.18661   0.22510

 Mulliken charges and spin densities:
               1          2
     1  Mn   0.430049   5.956614
     2  H   -0.430049   0.043386
 Sum of Mulliken charges =  -0.00000   6.00000

 Dipole moment (field-independent basis, Debye):
    X=              0.0000    Y=              0.0000    Z=              2.0462  Tot=              2.0462
 Quadrupole moment (field-independent basis, Debye-Ang):
   XX=            -16.2954   YY=            -16.2954   ZZ=            -27.3671
   XY=              0.0000   XZ=              0.0000   YZ=              0.0000

 \\#P ROCCSD(T)=(maxcyc=150, Full, SaveAmplitudes, ReadAmplitudes)/Gen
 DQ=-104.8325174\CCSD=-104.8334967\CCSD(T)=-104.8490505\RMSD=9.390e-09\
 Normal termination of Gaussian 16 at Wed Apr  4 06:48:06 2018.
