 Gaussian 16, Revision A.03,
 Gaussian 16:  ES64L-G16RevA.03 25-Dec-2016

 ----------------------------------------------------------------------
 #P ROCCSD(T)=(maxcyc=150, Full, SaveAmplitudes, ReadAmplitudes)/Gen 5d
  7f SCF=(maxcycles=300) Integral(NoXCTest) MaxDisk=500GB Pop=Regular P
 seudo=Read Guess=Read
 ----------------------------------------------------------------------

 ---
 TiO
 ---
 Symbolic Z-matrix:
 Charge =  0 Multiplicity = 3

                         Standard orientation:
 ---------------------------------------------------------------------
 Center     Atomic      Atomic             Coordinates (Angstroms)
 Number     Number       Type             X           Y           Z
 ---------------------------------------------------------------------
      1         22           0        0.000000    0.000000    0.400000
      2          8           0        0.000000    0.000000   -1.100000
 ---------------------------------------------------------------------

 SCF Done:  E(ROHF) =  -73.5268473264     A.U. after   21 cycles
 E2 =    -0.7743359604D+00 EUMP2 =    -0.74301183286734D+02
 CCSD(T)
 CCSD(T)= -0.74325809769D+02

 Unable to determine electronic state:  an orbital has unidentified symmetry.
 Alpha  occ. eigenvalues --   -3.01110  -1.89729  -1.87585  -1.87585  -1.16907
 Alpha  occ. eigenvalues --   -0.48794  -0.48794  -0.48427  -0.42528  -0.25005
 Alpha virt. eigenvalues --    0.00715   0.00715   0.01715   0.02368   0.03743
 Alpha virt. eigenvalues --    0.03802   0.03872   0.03872   0.04091   0.04191
 Alpha virt. eigenvalues --    0.04191   0.06061   0.09821   0.10418   0.11540

 Mulliken charges and spin densities:
               1          2
     1  Ti   0.996609   1.966978
     2  O   -0.996609   0.033022
 Sum of Mulliken charges =  -0.00000   2.00000

 Dipole moment (field-independent basis, Debye):
    X=              0.0000    Y=              0.0000    Z=              3.1722  Tot=              3.1722
 Quadrupole moment (field-independent basis, Debye-Ang):
   XX=            -21.4435   YY=            -21.4435   ZZ=            -28.1856
   XY=              0.0000   XZ=              0.0000   YZ=              0.0000

 \\#P ROCCSD(T)=(maxcyc=150, Full, SaveAmplitudes, ReadAmplitudes)/Gen
 -0=-74.3011833\CCSD=-74.2829878\CCSD(T)=-74.3258098\RMSD=7.405e-10\PG=
 Normal termination of Gaussian 16 at Tue Mar 13 00:30:25 2018.
