 Gaussian 16, Revision A.03,
 Gaussian 16:  ES64L-G16RevA.03 25-Dec-2016

 ----------------------------------------------------------------------
 #P ROCCSD(T)=(maxcyc=150, Window=(6,0), SaveAmplitudes, ReadAmplitudes
 )/Gen 5d 7f SCF=(maxcycles=300) Integral(NoXCTest, DKHSO) MaxDisk=500G
 B Pop=Regular Guess=Read IOp(5/15=2)
 ----------------------------------------------------------------------

 ---
 MnH
 ---
 Symbolic Z-matrix:
 Charge =  0 Multiplicity = 7

                         Standard orientation:
 ---------------------------------------------------------------------
 Center     Atomic      Atomic             Coordinates (Angstroms)
 Number     Number       Type             X           Y           Z
 ---------------------------------------------------------------------
      1         25           0        0.000000    0.000000    0.053846
      2          1           0        0.000000    0.000000   -1.346154
 ---------------------------------------------------------------------

 SCF Done:  E(ROHF) =  -1157.90773890     A.U. after   26 cycles
 E2 =    -0.5680501298D+00 EUMP2 =    -0.11584757890339D+04
 CCSD(T)
 CCSD(T)= -0.11584902626D+04

 The electronic state is 7-SG.
 Alpha  occ. eigenvalues -- -242.49036 -29.59619 -24.95046 -24.95046 -24.94932
 Alpha  occ. eigenvalues --   -4.08601  -2.73977  -2.73728  -2.73728  -0.65177
 Alpha  occ. eigenvalues --   -0.63382  -0.63382  -0.62905  -0.62905  -0.41842
 Alpha  occ. eigenvalues --   -0.24831
 Alpha virt. eigenvalues --    0.01369   0.01369   0.02203   0.03236   0.05849
 Alpha virt. eigenvalues --    0.05849   0.08516   0.08516   0.08538   0.08962
 Alpha virt. eigenvalues --    0.08962   0.09225   0.14178   0.21143   0.22793

 Mulliken charges and spin densities:
               1          2
     1  Mn   0.448833   5.951610
     2  H   -0.448833   0.048390
 Sum of Mulliken charges =  -0.00000   6.00000

 Dipole moment (field-independent basis, Debye):
    X=              0.0000    Y=              0.0000    Z=              0.2831  Tot=              0.2831
 Quadrupole moment (field-independent basis, Debye-Ang):
   XX=            -16.2786   YY=            -16.2786   ZZ=            -25.7457
   XY=              0.0000   XZ=              0.0000   YZ=              0.0000

 1\1\GINC-C504-081\SP\ROCCSD(T)-RW\Gen\H1Mn1(7)\AANNABE\25-Feb-2018\0\\
 #P ROCCSD(T)=(maxcyc=150, Window=(6,0), SaveAmplitudes, ReadAmplitudes
 )/Gen 5d 7f SCF=(maxcycles=300) Integral(NoXCTest, DKHSO) MaxDisk=500G
 B Pop=Regular Guess=Read IOp(5/15=2)\\MnH\\0,7\Mn,0,0.,0.,0.\H,0,0.,0.
 ,1.4\\Version=ES64L-G16RevA.03\State=7-SG\HF=-1157.9077389\MP2=-1158.4
 75789\MP3=-1158.4666542\PUHF=-1157.9077389\PMP2-0=-1158.475789\MP4SDQ=
 -1158.4749364\CCSD=-1158.4750327\CCSD(T)=-1158.4902626\RMSD=4.619e-09\
 PG=C*V [C*(H1Mn1)]\\@

 Normal termination of Gaussian 16 at Sun Feb 25 21:21:23 2018.
