 Gaussian 16, Revision A.03,
 Gaussian 16:  ES64L-G16RevA.03 25-Dec-2016

 ----------------------------------------------------------------------
 #P ROCCSD(T)=(maxcyc=150, Full, SaveAmplitudes, ReadAmplitudes)/Gen 5d
  7f SCF=(maxcycles=300) Integral(NoXCTest) MaxDisk=500GB Pop=Regular P
 seudo=Read Guess=Read
 ----------------------------------------------------------------------

 ---
 MnH
 ---
 Symbolic Z-matrix:
 Charge =  0 Multiplicity = 7

                         Standard orientation:
 ---------------------------------------------------------------------
 Center     Atomic      Atomic             Coordinates (Angstroms)
 Number     Number       Type             X           Y           Z
 ---------------------------------------------------------------------
      1         25           0        0.000000    0.000000    0.076923
      2          1           0        0.000000    0.000000   -1.923077
 ---------------------------------------------------------------------

 SCF Done:  E(ROHF) =  -104.247046983     A.U. after   19 cycles
 E2 =    -0.6076835716D+00 EUMP2 =    -0.10485473055483D+03
 CCSD(T)
 CCSD(T)= -0.10487897144D+03

 The electronic state is 7-SG.
 Alpha  occ. eigenvalues --   -4.11275  -2.77518  -2.77518  -2.77332  -0.65465
 Alpha  occ. eigenvalues --   -0.65465  -0.64777  -0.64777  -0.64726  -0.38678
 Alpha  occ. eigenvalues --   -0.27155
 Alpha virt. eigenvalues --    0.00914   0.00914   0.02152   0.02897   0.04795
 Alpha virt. eigenvalues --    0.04795   0.05579   0.05756   0.05756   0.06195
 Alpha virt. eigenvalues --    0.06195   0.09610   0.12218   0.13614   0.17925

 Mulliken charges and spin densities:
               1          2
     1  Mn   0.382663   5.954139
     2  H   -0.382663   0.045861
 Sum of Mulliken charges =  -0.00000   6.00000

 Dipole moment (field-independent basis, Debye):
    X=              0.0000    Y=              0.0000    Z=              2.3816  Tot=              2.3816
 Quadrupole moment (field-independent basis, Debye-Ang):
   XX=            -16.3460   YY=            -16.3460   ZZ=            -27.8828
   XY=              0.0000   XZ=              0.0000   YZ=              0.0000

 \\#P ROCCSD(T)=(maxcyc=150, Full, SaveAmplitudes, ReadAmplitudes)/Gen
 247047\PMP2-0=-104.8547306\CCSD=-104.8620447\CCSD(T)=-104.8789714\RMSD
 Normal termination of Gaussian 16 at Mon Feb 26 17:59:23 2018.
