 Gaussian 16, Revision A.03,
 Gaussian 16:  ES64L-G16RevA.03 25-Dec-2016

 ----------------------------------------------------------------------
 #P ROCCSD(T)=(MaxCyc=150, Window=(7,0))/Gen SCF=(maxcycle=400) Integra
 l(DKHSO, NoXCTest) Pop=Regular MaxDisk=500GB Guess=Read IOp(5/15=2)
 ----------------------------------------------------------------------

 ---
 CoO
 ---
 Symbolic Z-matrix:
 Charge =  0 Multiplicity = 4

                         Standard orientation:
 ---------------------------------------------------------------------
 Center     Atomic      Atomic             Coordinates (Angstroms)
 Number     Number       Type             X           Y           Z
 ---------------------------------------------------------------------
      1         27           0        0.000000    0.000000    0.297143
      2          8           0        0.000000    0.000000   -1.002857
 ---------------------------------------------------------------------

 SCF Done:  E(ROHF) =  -1466.55393729     A.U. after   20 cycles
 E2 =    -0.1178461184D+01 EUMP2 =    -0.14677323984707D+04
 CCSD(T)
 CCSD(T)= -0.14677042084D+04

 Unable to determine electronic state:  partially filled degenerate orbitals.
 Alpha  occ. eigenvalues -- -285.84754 -35.59756 -30.36355 -30.35916 -30.35916
 Alpha  occ. eigenvalues --  -20.57674  -4.83067  -3.28869  -3.24560  -3.24560
 Alpha  occ. eigenvalues --   -1.30893  -0.84969  -0.84969  -0.76702  -0.71685
 Alpha  occ. eigenvalues --   -0.70803  -0.47376  -0.47376  -0.34333
 Alpha virt. eigenvalues --   -0.00121   0.02554   0.02554   0.03356   0.04050
 Alpha virt. eigenvalues --    0.07094   0.07094   0.07212   0.07359   0.07367
 Alpha virt. eigenvalues --    0.09093   0.09093   0.11990   0.16315   0.21654

 Mulliken charges and spin densities:
               1          2
     1  Co   0.746990   2.705163
     2  O   -0.746990   0.294837
 Sum of Mulliken charges =  -0.00000   3.00000

 Dipole moment (field-independent basis, Debye):
    X=              0.0000    Y=              0.0000    Z=              3.7360  Tot=              3.7360
 Quadrupole moment (field-independent basis, Debye-Ang):
   XX=            -20.0198   YY=            -20.0198   ZZ=            -20.3613
   XY=              0.0000   XZ=              0.0000   YZ=              0.0000

 1\1\GINC-C405-123\SP\ROCCSD(T)-RW\Gen\Co1O1(4)\GWANG18\31-Mar-2018\0\\
 #P ROCCSD(T)=(MaxCyc=150, Window=(7,0))/Gen SCF=(maxcycle=400) Integra
 l(DKHSO, NoXCTest) Pop=Regular MaxDisk=500GB Guess=Read IOp(5/15=2)\\C
 oO\\0,4\Co,0,0.,0.,0.\O,0,0.,0.,1.3\\Version=ES64L-G16RevA.03\HF=-1466
 .5539373\MP2=-1467.7323985\MP3=-1467.5873043\PUHF=-1466.5539373\PMP2-0
 =-1467.7323985\MP4SDQ=-1467.6840267\CCSD=-1467.6528702\CCSD(T)=-1467.7
 042084\RMSD=3.363e-09\PG=C*V [C*(O1Co1)]\\@

 Normal termination of Gaussian 16 at Sat Mar 31 16:28:01 2018.
