 Gaussian 16, Revision A.03,
 Gaussian 16:  ES64L-G16RevA.03 25-Dec-2016

 ----------------------------------------------------------------------
 #P ROCCSD(T)=(maxcyc=150, Full, SaveAmplitudes, ReadAmplitudes)/Gen 5d
  7f SCF=(maxcycles=300, VShift=400) Integral(NoXCTest) MaxDisk=500GB P
 op=Full Pseudo=Read Guess=Read IOp(5/15=2)
 ----------------------------------------------------------------------

 ---
 CrO
 ---
 Symbolic Z-matrix:
 Charge =  0 Multiplicity = 5

                         Standard orientation:
 ---------------------------------------------------------------------
 Center     Atomic      Atomic             Coordinates (Angstroms)
 Number     Number       Type             X           Y           Z
 ---------------------------------------------------------------------
      1         24           0        0.000000    0.000000    0.325000
      2          8           0        0.000000    0.000000   -0.975000
 ---------------------------------------------------------------------

 SCF Done:  E(ROHF) =  -102.011409203     A.U. after   41 cycles
 E2 =    -0.8856907306D+00 EUMP2 =    -0.10289709993329D+03
 CCSD(T)
 CCSD(T)= -0.10290967369D+03

 Unable to determine electronic state:  an orbital has unidentified symmetry.
 Alpha  occ. eigenvalues --   -3.74987  -2.44715  -2.43592  -2.40329  -1.25083
 Alpha  occ. eigenvalues --   -0.69300  -0.59638  -0.59571  -0.52205  -0.51755
 Alpha  occ. eigenvalues --   -0.36180  -0.26968
 Alpha virt. eigenvalues --    0.01396   0.02303   0.02423   0.02892   0.05333
 Alpha virt. eigenvalues --    0.06622   0.07261   0.07733   0.07737   0.07899
 Alpha virt. eigenvalues --    0.08677   0.09868   0.12240   0.17258   0.19474

 Mulliken charges and spin densities:
               1          2
     1  Cr   0.905298   3.768733
     2  O   -0.905298   0.231267
 Sum of Mulliken charges =  -0.00000   4.00000

 Dipole moment (field-independent basis, Debye):
    X=              0.0000    Y=              0.0000    Z=              1.8211  Tot=              1.8211
 Quadrupole moment (field-independent basis, Debye-Ang):
   XX=            -21.2235   YY=            -19.6724   ZZ=            -23.4618
   XY=              0.0000   XZ=              0.0000   YZ=              0.0000

 \\#P ROCCSD(T)=(maxcyc=150, Full, SaveAmplitudes, ReadAmplitudes)/Gen
 857966\CCSD=-102.8674445\CCSD(T)=-102.9096737\RMSD=8.388e-09\PG=C*V [C
 Normal termination of Gaussian 16 at Wed Apr  4 07:55:10 2018.
