 Gaussian 16, Revision A.03,
 Gaussian 16:  ES64L-G16RevA.03 25-Dec-2016

 ----------------------------------------------------------------------
 #P ROCCSD(T)=(maxcyc=150, Full)/Gen 5d 7f SCF=(maxcycles=300) MaxDisk=
 500GB Pop=Regular Pseudo=Read Guess=Read
 ----------------------------------------------------------------------

 --
 Sc
 --
 Symbolic Z-matrix:
 Charge =  0 Multiplicity = 2

                         Standard orientation:
 ---------------------------------------------------------------------
 Center     Atomic      Atomic             Coordinates (Angstroms)
 Number     Number       Type             X           Y           Z
 ---------------------------------------------------------------------
      1         21           0        0.000000    0.000000    0.000000
 ---------------------------------------------------------------------

 SCF Done:  E(ROHF) =  -46.1221287771     A.U. after    1 cycles
 E2 =    -0.3929723362D+00 EUMP2 =    -0.46515101113252D+02
 CCSD(T)
 CCSD(T)= -0.46548609435D+02

 Unable to determine electronic state:  an orbital has unidentified symmetry.
 Alpha  occ. eigenvalues --   -2.62437  -1.63057  -1.63057  -1.59200  -0.34712
 Alpha  occ. eigenvalues --   -0.21509
 Alpha virt. eigenvalues --    0.01172   0.01263   0.01263   0.02003   0.02626
 Alpha virt. eigenvalues --    0.02628   0.02628   0.02635   0.02650   0.04254
 Alpha virt. eigenvalues --    0.04374   0.04374   0.07408   0.07486   0.07486

 Mulliken charges and spin densities:
               1          2
     1  Sc  -0.000000   1.000000
 Sum of Mulliken charges =  -0.00000   1.00000

 Dipole moment (field-independent basis, Debye):
    X=              0.0000    Y=              0.0000    Z=              0.0000  Tot=              0.0000
 Quadrupole moment (field-independent basis, Debye-Ang):
   XX=            -23.3716   YY=            -23.3716   ZZ=            -23.0794
   XY=             -0.0000   XZ=              0.0000   YZ=             -0.0000

 1\1\GINC-C506-012\SP\ROCCSD(T)-Full\Gen\Sc1(2)\AANNABE\16-Feb-2018\0\\
 #P ROCCSD(T)=(maxcyc=150, Full)/Gen 5d 7f SCF=(maxcycles=300) MaxDisk=
 500GB Pop=Regular Pseudo=Read Guess=Read\\Sc\\0,2\Sc,0,0.,0.,0.\\Versi
 on=ES64L-G16RevA.03\HF=-46.1221288\MP2=-46.5151011\MP3=-46.5330975\PUH
 F=-46.1221288\PMP2-0=-46.5151011\MP4SDQ=-46.5324741\CCSD=-46.5327368\C
 CSD(T)=-46.5486094\RMSD=1.862e-09\PG=OH [O(Sc1)]\\@

 Normal termination of Gaussian 16 at Fri Feb 16 11:16:58 2018.
