 Gaussian 16, Revision A.03,
 Gaussian 16:  ES64L-G16RevA.03 25-Dec-2016

 ----------------------------------------------------------------------
 #P ROCCSD(T)=(maxcyc=150, Window=(6,0), SaveAmplitudes, ReadAmplitudes
 )/Gen 5d 7f SCF=(maxcycles=300) Integral(NoXCTest, DKHSO) MaxDisk=500G
 B Pop=Regular Guess=Read
 ----------------------------------------------------------------------

 ---
 MnH
 ---
 Symbolic Z-matrix:
 Charge =  0 Multiplicity = 7

                         Standard orientation:
 ---------------------------------------------------------------------
 Center     Atomic      Atomic             Coordinates (Angstroms)
 Number     Number       Type             X           Y           Z
 ---------------------------------------------------------------------
      1         25           0        0.000000    0.000000    0.053846
      2          1           0        0.000000    0.000000   -1.346154
 ---------------------------------------------------------------------

 SCF Done:  E(ROHF) =  -1157.90911609     A.U. after   19 cycles
 E2 =    -0.5947756088D+00 EUMP2 =    -0.11585038917000D+04
 CCSD(T)
 CCSD(T)= -0.11585174742D+04

 The electronic state is 7-SG.
 Alpha  occ. eigenvalues -- -242.49026 -29.59596 -24.95022 -24.95022 -24.94907
 Alpha  occ. eigenvalues --   -4.08586  -2.73963  -2.73713  -2.73713  -0.65180
 Alpha  occ. eigenvalues --   -0.63386  -0.63386  -0.62907  -0.62907  -0.41841
 Alpha  occ. eigenvalues --   -0.24829
 Alpha virt. eigenvalues --    0.01307   0.01307   0.02014   0.03072   0.05158
 Alpha virt. eigenvalues --    0.05158   0.05697   0.05829   0.05829   0.06184
 Alpha virt. eigenvalues --    0.06184   0.08523   0.13930   0.14776   0.17971

 Mulliken charges and spin densities:
               1          2
     1  Mn   0.391046   5.930263
     2  H   -0.391046   0.069737
 Sum of Mulliken charges =  -0.00000   6.00000

 Dipole moment (field-independent basis, Debye):
    X=              0.0000    Y=             -0.0000    Z=              0.2823  Tot=              0.2823
 Quadrupole moment (field-independent basis, Debye-Ang):
   XX=            -16.2721   YY=            -16.2721   ZZ=            -25.7508
   XY=              0.0000   XZ=              0.0000   YZ=             -0.0000

 1\1\GINC-C504-081\SP\ROCCSD(T)-RW\Gen\H1Mn1(7)\AANNABE\25-Feb-2018\0\\
 #P ROCCSD(T)=(maxcyc=150, Window=(6,0), SaveAmplitudes, ReadAmplitudes
 )/Gen 5d 7f SCF=(maxcycles=300) Integral(NoXCTest, DKHSO) MaxDisk=500G
 B Pop=Regular Guess=Read\\MnH\\0,7\Mn,0,0.,0.,0.\H,0,0.,0.,1.4\\Versio
 n=ES64L-G16RevA.03\State=7-SG\HF=-1157.9091161\MP2=-1158.5038917\PUHF=
 -1157.9091161\PMP2-0=-1158.5038917\CCSD=-1158.5013397\CCSD(T)=-1158.51
 74742\RMSD=8.280e-09\PG=C*V [C*(H1Mn1)]\\@

 Normal termination of Gaussian 16 at Sun Feb 25 21:36:29 2018.
