 Gaussian 16, Revision A.03,
 Gaussian 16:  ES64L-G16RevA.03 25-Dec-2016

 ----------------------------------------------------------------------
 #P ROCCSD(T)=(maxcyc=150, Full, SaveAmplitudes, ReadAmplitudes)/Gen 5d
  7f SCF=(maxcycles=300) Integral(NoXCTest) MaxDisk=500GB Pop=Regular P
 seudo=Read Guess=Read
 ----------------------------------------------------------------------

 ---
 ScO
 ---
 Symbolic Z-matrix:
 Charge =  0 Multiplicity = 2

                         Standard orientation:
 ---------------------------------------------------------------------
 Center     Atomic      Atomic             Coordinates (Angstroms)
 Number     Number       Type             X           Y           Z
 ---------------------------------------------------------------------
      1         21           0        0.000000    0.000000    0.524138
      2          8           0        0.000000    0.000000   -1.375862
 ---------------------------------------------------------------------

 SCF Done:  E(ROHF) =  -62.0228251156     A.U. after   16 cycles
 E2 =    -0.7212874237D+00 EUMP2 =    -0.62744112539376D+02
 CCSD(T)
 CCSD(T)= -0.62773999632D+02

 The electronic state is 2-SG.
 Alpha  occ. eigenvalues --   -2.77037  -1.68028  -1.67980  -1.67980  -1.10895
 Alpha  occ. eigenvalues --   -0.40240  -0.36409  -0.36409  -0.27482
 Alpha virt. eigenvalues --   -0.00905  -0.00905   0.00825   0.01796   0.02567
 Alpha virt. eigenvalues --    0.02567   0.02604   0.02604   0.03260   0.03260
 Alpha virt. eigenvalues --    0.03449   0.03920   0.05326   0.05326   0.08870

 Mulliken charges and spin densities:
               1          2
     1  Sc   1.241451   0.984492
     2  O   -1.241451   0.015508
 Sum of Mulliken charges =  -0.00000   1.00000

 Dipole moment (field-independent basis, Debye):
    X=              0.0000    Y=              0.0000    Z=              6.6367  Tot=              6.6367
 Quadrupole moment (field-independent basis, Debye-Ang):
   XX=            -21.9577   YY=            -21.9577   ZZ=            -34.2681
   XY=              0.0000   XZ=              0.0000   YZ=              0.0000

 \\#P ROCCSD(T)=(maxcyc=150, Full, SaveAmplitudes, ReadAmplitudes)/Gen
 228251\PMP2-0=-62.7441125\CCSD=-62.7254648\CCSD(T)=-62.7739996\RMSD=8.
 Normal termination of Gaussian 16 at Wed Feb 21 07:51:05 2018.
