 Gaussian 16, Revision A.03,
 Gaussian 16:  ES64L-G16RevA.03 25-Dec-2016

 ----------------------------------------------------------------------
 #P ROCCSD(T)=(MaxCyc=150, Full)/Gen SCF=(maxcycle=400) Pseudo=Read Int
 egral(NoXCTest) Pop=Regular MaxDisk=500GB Guess=Read IOp(5/15=2)
 ----------------------------------------------------------------------

 ---
 CoO
 ---
 Symbolic Z-matrix:
 Charge =  0 Multiplicity = 4

                         Standard orientation:
 ---------------------------------------------------------------------
 Center     Atomic      Atomic             Coordinates (Angstroms)
 Number     Number       Type             X           Y           Z
 ---------------------------------------------------------------------
      1         27           0        0.000000    0.000000    0.320000
      2          8           0        0.000000    0.000000   -1.080000
 ---------------------------------------------------------------------

 SCF Done:  E(ROHF) =  -160.585314100     A.U. after   25 cycles
 E2 =    -0.1117104134D+01 EUMP2 =    -0.16170241823372D+03
 CCSD(T)
 CCSD(T)= -0.16170600136D+03

 Unable to determine electronic state:  partially filled degenerate orbitals.
 Alpha  occ. eigenvalues --   -4.90113  -3.26741  -3.24545  -3.24545  -1.26362
 Alpha  occ. eigenvalues --   -0.80395  -0.80395  -0.75862  -0.70812  -0.68013
 Alpha  occ. eigenvalues --   -0.43637  -0.43637  -0.35849
 Alpha virt. eigenvalues --   -0.01991   0.02629   0.02629   0.03321   0.03947
 Alpha virt. eigenvalues --    0.08697   0.08697   0.10292   0.11140   0.11166
 Alpha virt. eigenvalues --    0.11752   0.11752   0.14342   0.16584   0.26004

 Mulliken charges and spin densities:
               1          2
     1  Co   0.942768   2.793677
     2  O   -0.942768   0.206323
 Sum of Mulliken charges =  -0.00000   3.00000

 Dipole moment (field-independent basis, Debye):
    X=              0.0000    Y=              0.0000    Z=              5.5406  Tot=              5.5406
 Quadrupole moment (field-independent basis, Debye-Ang):
   XX=            -19.0902   YY=            -19.0902   ZZ=            -20.1170
   XY=              0.0000   XZ=              0.0000   YZ=              0.0000

 \\#P ROCCSD(T)=(MaxCyc=150, Full)/Gen SCF=(maxcycle=400) Pseudo=Read I
 .7024182\MP4SDQ=-161.6726704\CCSD=-161.6541117\CCSD(T)=-161.7060014\RM
 Normal termination of Gaussian 16 at Sat Mar 31 17:53:02 2018.
