 Gaussian 16, Revision A.03,
 Gaussian 16:  ES64L-G16RevA.03 25-Dec-2016

 ----------------------------------------------------------------------
 #P ROCCSD(T)=(MaxCyc=150, Full)/Gen SCF=(maxcycle=400) Pseudo=Read Int
 egral(NoXCTest) Pop=Regular MaxDisk=500GB Guess=Read IOp(5/15=2)
 ----------------------------------------------------------------------

 ---
 CoO
 ---
 Symbolic Z-matrix:
 Charge =  0 Multiplicity = 4

                         Standard orientation:
 ---------------------------------------------------------------------
 Center     Atomic      Atomic             Coordinates (Angstroms)
 Number     Number       Type             X           Y           Z
 ---------------------------------------------------------------------
      1         27           0        0.000000    0.000000    0.320000
      2          8           0        0.000000    0.000000   -1.080000
 ---------------------------------------------------------------------

 SCF Done:  E(ROHF) =  -160.589233710     A.U. after   19 cycles
 E2 =    -0.1169174751D+01 EUMP2 =    -0.16175840846104D+03
 CCSD(T)
 CCSD(T)= -0.16175950383D+03

 Unable to determine electronic state:  partially filled degenerate orbitals.
 Alpha  occ. eigenvalues --   -4.90109  -3.26721  -3.24533  -3.24533  -1.26303
 Alpha  occ. eigenvalues --   -0.80399  -0.80399  -0.75862  -0.70815  -0.68005
 Alpha  occ. eigenvalues --   -0.43652  -0.43652  -0.35833
 Alpha virt. eigenvalues --   -0.01990   0.02325   0.02325   0.03058   0.03596
 Alpha virt. eigenvalues --    0.07033   0.07033   0.07100   0.07287   0.07295
 Alpha virt. eigenvalues --    0.08967   0.08967   0.12554   0.15450   0.21662

 Mulliken charges and spin densities:
               1          2
     1  Co   0.897704   2.796631
     2  O   -0.897704   0.203369
 Sum of Mulliken charges =  -0.00000   3.00000

 Dipole moment (field-independent basis, Debye):
    X=              0.0000    Y=              0.0000    Z=              5.5290  Tot=              5.5290
 Quadrupole moment (field-independent basis, Debye-Ang):
   XX=            -19.0897   YY=            -19.0897   ZZ=            -20.1002
   XY=              0.0000   XZ=              0.0000   YZ=              0.0000

 \\#P ROCCSD(T)=(MaxCyc=150, Full)/Gen SCF=(maxcycle=400) Pseudo=Read I
 .7584085\MP4SDQ=-161.7230789\CCSD=-161.7052962\CCSD(T)=-161.7595038\RM
 Normal termination of Gaussian 16 at Sat Mar 31 20:06:37 2018.
