 Gaussian 16, Revision A.03,
 Gaussian 16:  ES64L-G16RevA.03 25-Dec-2016

 ----------------------------------------------------------------------
 #P ROCCSD(T)=(MaxCyc=150, Window=(7,0))/Gen SCF=(maxcycle=400) Integra
 l(DKHSO, NoXCTest) Pop=Regular MaxDisk=500GB Guess=Read IOp(5/15=2)
 ----------------------------------------------------------------------

 ---
 CuO
 ---
 Symbolic Z-matrix:
 Charge =  0 Multiplicity = 2

                         Standard orientation:
 ---------------------------------------------------------------------
 Center     Atomic      Atomic             Coordinates (Angstroms)
 Number     Number       Type             X           Y           Z
 ---------------------------------------------------------------------
      1         29           0        0.000000    0.000000    0.410811
      2          8           0        0.000000    0.000000   -1.489189
 ---------------------------------------------------------------------

 SCF Done:  E(ROHF) =  -1728.05299536     A.U. after   20 cycles
 E2 =    -0.1326534262D+01 EUMP2 =    -0.17293795296210D+04
 CCSD(T)
 CCSD(T)= -0.17292956105D+04

 Unable to determine electronic state:  an orbital has unidentified symmetry.
 Alpha  occ. eigenvalues -- -332.52465 -41.69617 -35.83825 -35.83746 -35.83422
 Alpha  occ. eigenvalues --  -20.52040  -5.19351  -3.40152  -3.40096  -3.39962
 Alpha  occ. eigenvalues --   -1.19456  -0.55089  -0.53099  -0.52596  -0.52038
 Alpha  occ. eigenvalues --   -0.52037  -0.48369  -0.41250  -0.40729
 Alpha virt. eigenvalues --   -0.01750   0.02422   0.02547   0.03340   0.04341
 Alpha virt. eigenvalues --    0.08570   0.08784   0.11393   0.13152   0.13156
 Alpha virt. eigenvalues --    0.14542   0.14611   0.15082   0.18742   0.21249

 Mulliken charges and spin densities:
               1          2
     1  Cu   0.764874   0.010129
     2  O   -0.764874   0.989871
 Sum of Mulliken charges =  -0.00000   1.00000

 Dipole moment (field-independent basis, Debye):
    X=              0.0000    Y=             -0.0000    Z=              6.3507  Tot=              6.3507
 Quadrupole moment (field-independent basis, Debye-Ang):
   XX=            -17.2490   YY=            -15.6909   ZZ=            -21.9560
   XY=             -0.0000   XZ=              0.0000   YZ=             -0.0000

 1\1\GINC-C502-014\SP\ROCCSD(T)-RW\Gen\Cu1O1(2)\GWANG18\26-Mar-2018\0\\
 #P ROCCSD(T)=(MaxCyc=150, Window=(7,0))/Gen SCF=(maxcycle=400) Integra
 l(DKHSO, NoXCTest) Pop=Regular MaxDisk=500GB Guess=Read IOp(5/15=2)\\C
 uO\\0,2\Cu,0,0.,0.,0.\O,0,0.,0.,1.9\\Version=ES64L-G16RevA.03\HF=-1728
 .0529954\MP2=-1729.3795296\MP3=-1729.158203\PUHF=-1728.0529954\PMP2-0=
 -1729.3795296\MP4SDQ=-1729.328095\CCSD=-1729.2499306\CCSD(T)=-1729.295
 6105\RMSD=6.782e-09\PG=C*V [C*(O1Cu1)]\\@

 Normal termination of Gaussian 16 at Mon Mar 26 07:04:37 2018.
