 Gaussian 16, Revision A.03,
 Gaussian 16:  ES64L-G16RevA.03 25-Dec-2016

 ----------------------------------------------------------------------
 #P ROCCSD(T)=(maxcyc=150, Full, SaveAmplitudes, ReadAmplitudes)/Gen 5d
  7f SCF=(maxcycles=300) Integral(NoXCTest) MaxDisk=500GB Pop=Regular P
 seudo=Read Guess=Read IOp(5/15=2)
 ----------------------------------------------------------------------

 ---
 CrO
 ---
 Symbolic Z-matrix:
 Charge =  0 Multiplicity = 5

                         Standard orientation:
 ---------------------------------------------------------------------
 Center     Atomic      Atomic             Coordinates (Angstroms)
 Number     Number       Type             X           Y           Z
 ---------------------------------------------------------------------
      1         24           0        0.000000    0.000000    0.325000
      2          8           0        0.000000    0.000000   -0.975000
 ---------------------------------------------------------------------

 SCF Done:  E(ROHF) =  -101.889018789     A.U. after   30 cycles
 E2 =    -0.8852386906D+00 EUMP2 =    -0.10277425747978D+03
 CCSD(T)
 CCSD(T)= -0.10278646527D+03

 Unable to determine electronic state:  an orbital has unidentified symmetry.
 Alpha  occ. eigenvalues --   -3.74636  -2.45024  -2.43919  -2.40745  -1.25191
 Alpha  occ. eigenvalues --   -0.68914  -0.59681  -0.59484  -0.51668  -0.51255
 Alpha  occ. eigenvalues --   -0.35645  -0.27272
 Alpha virt. eigenvalues --    0.01377   0.02289   0.02451   0.02894   0.05296
 Alpha virt. eigenvalues --    0.06604   0.07298   0.07738   0.07742   0.07897
 Alpha virt. eigenvalues --    0.08728   0.09836   0.12244   0.17265   0.19364

 Mulliken charges and spin densities:
               1          2
     1  Cr   0.911716   3.767072
     2  O   -0.911716   0.232928
 Sum of Mulliken charges =  -0.00000   4.00000

 Dipole moment (field-independent basis, Debye):
    X=              0.0000    Y=              0.0000    Z=              1.8442  Tot=              1.8442
 Quadrupole moment (field-independent basis, Debye-Ang):
   XX=            -21.3327   YY=            -19.6843   ZZ=            -23.4855
   XY=              0.0000   XZ=              0.0000   YZ=              0.0000

 \\#P ROCCSD(T)=(maxcyc=150, Full, SaveAmplitudes, ReadAmplitudes)/Gen
 SD=-102.7443027\CCSD(T)=-102.7864653\RMSD=4.592e-09\PG=C*V [C*(O1Cr1)]
 Normal termination of Gaussian 16 at Tue Mar 13 02:51:11 2018.
