 Gaussian 16, Revision A.03,
 Gaussian 16:  ES64L-G16RevA.03 25-Dec-2016

 ----------------------------------------------------------------------
 #P ROCCSD(T)=(maxcyc=150, Full)/Gen 5d 7f SCF=(maxcycles=300, NoVarAcc
 , VShift=200) MaxDisk=100GB Pop=Regular Pseudo=Read Guess=Read
 ----------------------------------------------------------------------

 --
 Sc
 --
 Symbolic Z-matrix:
 Charge =  0 Multiplicity = 2

                         Standard orientation:
 ---------------------------------------------------------------------
 Center     Atomic      Atomic             Coordinates (Angstroms)
 Number     Number       Type             X           Y           Z
 ---------------------------------------------------------------------
      1         21           0        0.000000    0.000000    0.000000
 ---------------------------------------------------------------------

 SCF Done:  E(ROHF) =  -46.1275240947     A.U. after   18 cycles
 E2 =    -0.3851007785D+00 EUMP2 =    -0.46512624873158D+02
 CCSD(T)
 CCSD(T)= -0.46547964901D+02

 Unable to determine electronic state:  an orbital has unidentified symmetry.
 Alpha  occ. eigenvalues --   -2.62961  -1.62872  -1.62872  -1.59014  -0.34691
 Alpha  occ. eigenvalues --   -0.21534
 Alpha virt. eigenvalues --    0.01183   0.01274   0.01274   0.02126   0.02886
 Alpha virt. eigenvalues --    0.02889   0.02889   0.02898   0.02918   0.04315
 Alpha virt. eigenvalues --    0.04437   0.04437   0.08089   0.08208   0.08208

 Mulliken charges and spin densities:
               1          2
     1  Sc  -0.000000   1.000000
 Sum of Mulliken charges =  -0.00000   1.00000

 Dipole moment (field-independent basis, Debye):
    X=              0.0000    Y=              0.0000    Z=              0.0000  Tot=              0.0000
 Quadrupole moment (field-independent basis, Debye-Ang):
   XX=            -23.3413   YY=            -23.3413   ZZ=            -23.0472
   XY=             -0.0000   XZ=              0.0000   YZ=             -0.0000

 1\1\GINC-C465-122\SP\ROCCSD(T)-Full\Gen\Sc1(2)\AANNABE\16-Mar-2018\0\\
 #P ROCCSD(T)=(maxcyc=150, Full)/Gen 5d 7f SCF=(maxcycles=300, NoVarAcc
 , VShift=200) MaxDisk=100GB Pop=Regular Pseudo=Read Guess=Read\\Sc\\0,
 2\Sc,0,0.,0.,0.\\Version=ES64L-G16RevA.03\HF=-46.1275241\MP2=-46.51262
 49\MP3=-46.5327096\PUHF=-46.1275241\PMP2-0=-46.5126249\MP4SDQ=-46.5322
 378\CCSD=-46.5324741\CCSD(T)=-46.5479649\RMSD=5.129e-09\PG=OH [O(Sc1)]
 \\@

 Normal termination of Gaussian 16 at Fri Mar 16 14:18:03 2018.
