 Gaussian 16, Revision A.03,
 Gaussian 16:  ES64L-G16RevA.03 25-Dec-2016

 ----------------------------------------------------------------------
 #P ROCCSD(T)=(maxcyc=100, Full)/Gen SCF=(maxcycle=400, symm) Pseudo=Re
 ad Integral(NoXCTest) Pop=Regular MaxDisk=500GB Guess=Permute IOp(5/15
 =2)
 ----------------------------------------------------------------------

 ---
 FeH
 ---
 Symbolic Z-matrix:
 Charge =  0 Multiplicity = 4

                         Standard orientation:
 ---------------------------------------------------------------------
 Center     Atomic      Atomic             Coordinates (Angstroms)
 Number     Number       Type             X           Y           Z
 ---------------------------------------------------------------------
      1         26           0        0.000000    0.000000    0.077778
      2          1           0        0.000000    0.000000   -2.022222
 ---------------------------------------------------------------------

 SCF Done:  E(ROHF) =  -123.566435800     A.U. after   25 cycles
 E2 =    -0.8029943563D+00 EUMP2 =    -0.12436943015615D+03
 CCSD(T)
 CCSD(T)= -0.12438411073D+03

 Unable to determine electronic state:  an orbital has unidentified symmetry.
 Alpha  occ. eigenvalues --   -4.16533  -2.74808  -2.74710  -2.74710  -0.48720
 Alpha  occ. eigenvalues --   -0.48676  -0.48676  -0.43608  -0.42405  -0.30403
 Alpha virt. eigenvalues --   -0.01593   0.01907   0.01907   0.02575   0.03005
 Alpha virt. eigenvalues --    0.05722   0.06051   0.06063   0.06373   0.06373
 Alpha virt. eigenvalues --    0.07077   0.07077   0.09171   0.12108   0.14737

 Mulliken charges and spin densities:
               1          2
     1  Fe   0.357180   2.998786
     2  H   -0.357180   0.001214
 Sum of Mulliken charges =  -0.00000   3.00000

 Dipole moment (field-independent basis, Debye):
    X=              0.0000    Y=              0.0000    Z=              5.8296  Tot=              5.8296
 Quadrupole moment (field-independent basis, Debye-Ang):
   XX=            -15.1424   YY=            -15.1424   ZZ=            -21.7845
   XY=              0.0000   XZ=              0.0000   YZ=              0.0000

 \\#P ROCCSD(T)=(maxcyc=100, Full)/Gen SCF=(maxcycle=400, symm) Pseudo=
 3565964\CCSD(T)=-124.3841107\RMSD=5.136e-09\PG=C*V [C*(H1Fe1)]\\@
 Normal termination of Gaussian 16 at Mon Feb 19 15:03:07 2018.
