 Gaussian 16, Revision A.03,
 Gaussian 16:  ES64L-G16RevA.03 25-Dec-2016

 ----------------------------------------------------------------------
 #P ROCCSD(T)=(maxcyc=100, Full)/Gen SCF=(maxcycle=400, symm) Pseudo=Re
 ad Integral(NoXCTest) Pop=Regular MaxDisk=500GB Guess=Permute IOp(5/15
 =2)
 ----------------------------------------------------------------------

 ---
 FeH
 ---
 Symbolic Z-matrix:
 Charge =  0 Multiplicity = 4

                         Standard orientation:
 ---------------------------------------------------------------------
 Center     Atomic      Atomic             Coordinates (Angstroms)
 Number     Number       Type             X           Y           Z
 ---------------------------------------------------------------------
      1         26           0        0.000000    0.000000    0.077778
      2          1           0        0.000000    0.000000   -2.022222
 ---------------------------------------------------------------------

 SCF Done:  E(ROHF) =  -123.565837018     A.U. after   25 cycles
 E2 =    -0.7888103162D+00 EUMP2 =    -0.12435464733397D+03
 CCSD(T)
 CCSD(T)= -0.12437147587D+03

 Unable to determine electronic state:  an orbital has unidentified symmetry.
 Alpha  occ. eigenvalues --   -4.16513  -2.74812  -2.74714  -2.74714  -0.48721
 Alpha  occ. eigenvalues --   -0.48677  -0.48677  -0.43604  -0.42400  -0.30402
 Alpha virt. eigenvalues --   -0.01584   0.01969   0.01969   0.03078   0.03306
 Alpha virt. eigenvalues --    0.06174   0.06600   0.06615   0.06845   0.06845
 Alpha virt. eigenvalues --    0.07462   0.07462   0.10571   0.14545   0.17134

 Mulliken charges and spin densities:
               1          2
     1  Fe   0.390811   2.999345
     2  H   -0.390811   0.000655
 Sum of Mulliken charges =  -0.00000   3.00000

 Dipole moment (field-independent basis, Debye):
    X=              0.0000    Y=              0.0000    Z=              5.8300  Tot=              5.8300
 Quadrupole moment (field-independent basis, Debye-Ang):
   XX=            -15.1445   YY=            -15.1445   ZZ=            -21.7818
   XY=              0.0000   XZ=              0.0000   YZ=              0.0000

 \\#P ROCCSD(T)=(maxcyc=100, Full)/Gen SCF=(maxcycle=400, symm) Pseudo=
 49144\CCSD(T)=-124.3714759\RMSD=6.457e-09\PG=C*V [C*(H1Fe1)]\\@
 Normal termination of Gaussian 16 at Mon Feb 19 14:12:33 2018.
