 Gaussian 16, Revision A.03,
 Gaussian 16:  ES64L-G16RevA.03 25-Dec-2016

 ----------------------------------------------------------------------
 #P ROCCSD(T)=(maxcyc=100, Full)/Gen SCF=(maxcycle=400, symm) Pseudo=Re
 ad Integral(NoXCTest) Pop=Regular MaxDisk=500GB Guess=Permute IOp(5/15
 =2)
 ----------------------------------------------------------------------

 ---
 FeH
 ---
 Symbolic Z-matrix:
 Charge =  0 Multiplicity = 4

                         Standard orientation:
 ---------------------------------------------------------------------
 Center     Atomic      Atomic             Coordinates (Angstroms)
 Number     Number       Type             X           Y           Z
 ---------------------------------------------------------------------
      1         26           0        0.000000    0.000000    0.077778
      2          1           0        0.000000    0.000000   -2.022222
 ---------------------------------------------------------------------

 SCF Done:  E(ROHF) =  -123.564725284     A.U. after   23 cycles
 E2 =    -0.7531376834D+00 EUMP2 =    -0.12431786296736D+03
 CCSD(T)
 CCSD(T)= -0.12433712635D+03

 Unable to determine electronic state:  an orbital has unidentified symmetry.
 Alpha  occ. eigenvalues --   -4.16555  -2.74823  -2.74724  -2.74724  -0.48708
 Alpha  occ. eigenvalues --   -0.48665  -0.48665  -0.43591  -0.42380  -0.30400
 Alpha virt. eigenvalues --   -0.01581   0.02206   0.02206   0.03348   0.03581
 Alpha virt. eigenvalues --    0.08127   0.08127   0.09241   0.09894   0.09939
 Alpha virt. eigenvalues --    0.10267   0.10267   0.11400   0.16470   0.21227

 Mulliken charges and spin densities:
               1          2
     1  Fe   0.440246   2.999738
     2  H   -0.440246   0.000262
 Sum of Mulliken charges =  -0.00000   3.00000

 Dipole moment (field-independent basis, Debye):
    X=              0.0000    Y=              0.0000    Z=              5.8331  Tot=              5.8331
 Quadrupole moment (field-independent basis, Debye-Ang):
   XX=            -15.1601   YY=            -15.1601   ZZ=            -21.7661
   XY=              0.0000   XZ=              0.0000   YZ=              0.0000

 \\#P ROCCSD(T)=(maxcyc=100, Full)/Gen SCF=(maxcycle=400, symm) Pseudo=
 1254\CCSD(T)=-124.3371264\RMSD=9.865e-09\PG=C*V [C*(H1Fe1)]\\@
 Normal termination of Gaussian 16 at Mon Feb 19 13:33:40 2018.
