 Gaussian 16, Revision A.03,
 Gaussian 16:  ES64L-G16RevA.03 25-Dec-2016

 ----------------------------------------------------------------------
 #P ROCCSD(T)=(MaxCyc=150, Full)/Gen SCF=(maxcycle=400) Pseudo=Read Int
 egral(NoXCTest) Pop=Regular MaxDisk=500GB Guess=Read IOp(5/15=2)
 ----------------------------------------------------------------------

 --
 Fe
 --
 Symbolic Z-matrix:
 Charge =  0 Multiplicity = 5

                         Standard orientation:
 ---------------------------------------------------------------------
 Center     Atomic      Atomic             Coordinates (Angstroms)
 Number     Number       Type             X           Y           Z
 ---------------------------------------------------------------------
      1         26           0        0.000000    0.000000    0.000000
 ---------------------------------------------------------------------

 SCF Done:  E(ROHF) =  -123.119762834     A.U. after    1 cycles
 E2 =    -0.7006458410D+00 EUMP2 =    -0.12382040867476D+03
 CCSD(T)
 CCSD(T)= -0.12383241356D+03

 Unable to determine electronic state:  an orbital has unidentified symmetry.
 Alpha  occ. eigenvalues --   -4.51203  -3.03888  -2.96067  -2.96067  -0.70487
 Alpha  occ. eigenvalues --   -0.69474  -0.69474  -0.66304  -0.61107  -0.27670
 Alpha virt. eigenvalues --    0.01786   0.01939   0.01939   0.02194   0.05770
 Alpha virt. eigenvalues --    0.06119   0.06119   0.06212   0.06217   0.06217
 Alpha virt. eigenvalues --    0.06232   0.06239   0.10760   0.19182   0.19412

 Mulliken charges and spin densities:
               1          2
     1  Fe   0.000000   4.000000
 Sum of Mulliken charges =   0.00000   4.00000

 Dipole moment (field-independent basis, Debye):
    X=              0.0000    Y=              0.0000    Z=              0.0000  Tot=              0.0000
 Quadrupole moment (field-independent basis, Debye-Ang):
   XX=            -17.6722   YY=            -17.9301   ZZ=            -17.9301
   XY=              0.0000   XZ=             -0.0000   YZ=             -0.0000

 1\1\GINC-C402-014\SP\ROCCSD(T)-Full\Gen\Fe1(5)\GWANG18\24-Mar-2018\0\\
 #P ROCCSD(T)=(MaxCyc=150, Full)/Gen SCF=(maxcycle=400) Pseudo=Read Int
 egral(NoXCTest) Pop=Regular MaxDisk=500GB Guess=Read IOp(5/15=2)\\Fe\\
 0,5\Fe,0,0.,0.,0.\\Version=ES64L-G16RevA.03\HF=-123.1197628\MP2=-123.8
 204087\MP3=-123.8038941\PUHF=-123.1197628\PMP2-0=-123.8204087\MP4SDQ=-
 123.8123253\CCSD=-123.8109223\CCSD(T)=-123.8324136\RMSD=6.274e-09\PG=O
 H [O(Fe1)]\\@

 Normal termination of Gaussian 16 at Sat Mar 24 01:41:16 2018.
