 Gaussian 16, Revision A.03,
 Gaussian 16:  ES64L-G16RevA.03 25-Dec-2016

 ----------------------------------------------------------------------
 #P ROCCSD(T)=(MaxCyc=150, Full)/Gen SCF=(maxcycle=400) Pseudo=Read Int
 egral(NoXCTest) Pop=Regular MaxDisk=500GB Guess=Read IOp(5/15=2)
 ----------------------------------------------------------------------

 --
 Fe
 --
 Symbolic Z-matrix:
 Charge =  0 Multiplicity = 5

                         Standard orientation:
 ---------------------------------------------------------------------
 Center     Atomic      Atomic             Coordinates (Angstroms)
 Number     Number       Type             X           Y           Z
 ---------------------------------------------------------------------
      1         26           0        0.000000    0.000000    0.000000
 ---------------------------------------------------------------------

 SCF Done:  E(ROHF) =  -123.119636590     A.U. after   16 cycles
 E2 =    -0.6877193683D+00 EUMP2 =    -0.12380735595863D+03
 CCSD(T)
 CCSD(T)= -0.12382101959D+03

 Unable to determine electronic state:  an orbital has unidentified symmetry.
 Alpha  occ. eigenvalues --   -4.51202  -3.03889  -2.96068  -2.96068  -0.70487
 Alpha  occ. eigenvalues --   -0.69474  -0.69474  -0.66306  -0.61104  -0.27670
 Alpha virt. eigenvalues --    0.01818   0.01978   0.01978   0.02698   0.05991
 Alpha virt. eigenvalues --    0.06350   0.06350   0.06766   0.06771   0.06771
 Alpha virt. eigenvalues --    0.06790   0.06799   0.14301   0.20460   0.21019

 Mulliken charges and spin densities:
               1          2
     1  Fe   0.000000   4.000000
 Sum of Mulliken charges =   0.00000   4.00000

 Dipole moment (field-independent basis, Debye):
    X=              0.0000    Y=              0.0000    Z=              0.0000  Tot=              0.0000
 Quadrupole moment (field-independent basis, Debye-Ang):
   XX=            -17.6729   YY=            -17.9311   ZZ=            -17.9311
   XY=              0.0000   XZ=             -0.0000   YZ=             -0.0000

 1\1\GINC-C455-041\SP\ROCCSD(T)-Full\Gen\Fe1(5)\GWANG18\26-Mar-2018\0\\
 #P ROCCSD(T)=(MaxCyc=150, Full)/Gen SCF=(maxcycle=400) Pseudo=Read Int
 egral(NoXCTest) Pop=Regular MaxDisk=500GB Guess=Read IOp(5/15=2)\\Fe\\
 0,5\Fe,0,0.,0.,0.\\Version=ES64L-G16RevA.03\HF=-123.1196366\MP2=-123.8
 07356\MP3=-123.7926942\PUHF=-123.1196366\PMP2-0=-123.807356\MP4SDQ=-12
 3.8014167\CCSD=-123.7999249\CCSD(T)=-123.8210196\RMSD=6.778e-09\PG=OH
 [O(Fe1)]\\@

 Normal termination of Gaussian 16 at Mon Mar 26 13:08:33 2018.
