 Gaussian 16, Revision A.03,
 Gaussian 16:  ES64L-G16RevA.03 25-Dec-2016

 ----------------------------------------------------------------------
 #P ROCCSD(T)=(MaxCyc=150, Full)/Gen SCF=(maxcycle=400) Pseudo=Read Int
 egral(NoXCTest) Pop=Regular MaxDisk=500GB Guess=Read
 ----------------------------------------------------------------------

 --
 Fe
 --
 Symbolic Z-matrix:
 Charge =  0 Multiplicity = 5

                         Standard orientation:
 ---------------------------------------------------------------------
 Center     Atomic      Atomic             Coordinates (Angstroms)
 Number     Number       Type             X           Y           Z
 ---------------------------------------------------------------------
      1         26           0        0.000000    0.000000    0.000000
 ---------------------------------------------------------------------

 SCF Done:  E(ROHF) =  -123.118686800     A.U. after   16 cycles
 E2 =    -0.6553328315D+00 EUMP2 =    -0.12377401963169D+03
 CCSD(T)
 CCSD(T)= -0.12378894647D+03

 Unable to determine electronic state:  an orbital has unidentified symmetry.
 Alpha  occ. eigenvalues --   -4.51206  -3.03901  -2.96080  -2.96080  -0.70484
 Alpha  occ. eigenvalues --   -0.69473  -0.69473  -0.66306  -0.61101  -0.27673
 Alpha virt. eigenvalues --    0.01924   0.02105   0.02105   0.02818   0.06775
 Alpha virt. eigenvalues --    0.07169   0.07169   0.10067   0.10081   0.10081
 Alpha virt. eigenvalues --    0.10123   0.10150   0.14836   0.25219   0.25909

 Mulliken charges and spin densities:
               1          2
     1  Fe   0.000000   4.000000
 Sum of Mulliken charges =   0.00000   4.00000

 Dipole moment (field-independent basis, Debye):
    X=              0.0000    Y=              0.0000    Z=              0.0000  Tot=              0.0000
 Quadrupole moment (field-independent basis, Debye-Ang):
   XX=            -17.6729   YY=            -17.9328   ZZ=            -17.9328
   XY=              0.0000   XZ=             -0.0000   YZ=             -0.0000

 1\1\GINC-C402-014\SP\ROCCSD(T)-Full\Gen\Fe1(5)\GWANG18\24-Mar-2018\0\\
 #P ROCCSD(T)=(MaxCyc=150, Full)/Gen SCF=(maxcycle=400) Pseudo=Read Int
 egral(NoXCTest) Pop=Regular MaxDisk=500GB Guess=Read\\Fe\\0,5\Fe,0,0.,
 0.,0.\\Version=ES64L-G16RevA.03\HF=-123.1186868\MP2=-123.7740196\MP3=-
 123.7609517\PUHF=-123.1186868\PMP2-0=-123.7740196\MP4SDQ=-123.7705714\
 CCSD=-123.768949\CCSD(T)=-123.7889465\RMSD=1.591e-09\PG=OH [O(Fe1)]\\@

 Normal termination of Gaussian 16 at Sat Mar 24 00:34:20 2018.
