 Gaussian 16, Revision A.03,
 Gaussian 16:  ES64L-G16RevA.03 25-Dec-2016

 ----------------------------------------------------------------------
 #P ROCCSD(T)=(maxcyc=150, Full)/Gen 5d 7f SCF=(maxcycles=300) Integral
 (NoXCTest, DKHSO) MaxDisk=500GB Pop=Regular IOp(5/15=2) Guess=Read
 ----------------------------------------------------------------------

 ---
 CrH
 ---
 Symbolic Z-matrix:
 Charge =  0 Multiplicity = 6

                         Standard orientation:
 ---------------------------------------------------------------------
 Center     Atomic      Atomic             Coordinates (Angstroms)
 Number     Number       Type             X           Y           Z
 ---------------------------------------------------------------------
      1         24           0        0.000000    0.000000    0.056000
      2          1           0        0.000000    0.000000   -1.344000
 ---------------------------------------------------------------------

 SCF Done:  E(ROHF) =  -1050.17512845     A.U. after   29 cycles
 E2 =    -0.9408287504D+00 EUMP2 =    -0.10511159571996D+04
 CCSD(T)
 CCSD(T)= -0.10511401113D+04

 The electronic state is 6-SG.
 Alpha  occ. eigenvalues -- -222.15400 -26.74453 -22.37881 -22.37881 -22.37810
 Alpha  occ. eigenvalues --   -3.62278  -2.37668  -2.37668  -2.34856  -0.49568
 Alpha  occ. eigenvalues --   -0.49568  -0.46728  -0.46728  -0.43809  -0.25356
 Alpha virt. eigenvalues --    0.01573   0.01573   0.02178   0.02381   0.05927
 Alpha virt. eigenvalues --    0.05927   0.06069   0.07763   0.07763   0.08102
 Alpha virt. eigenvalues --    0.08102   0.08427   0.10148   0.19030   0.21718

 Mulliken charges and spin densities:
               1          2
     1  Cr   0.642505   5.003113
     2  H   -0.642505  -0.003113
 Sum of Mulliken charges =  -0.00000   5.00000

 Dipole moment (field-independent basis, Debye):
    X=              0.0000    Y=              0.0000    Z=              1.8450  Tot=              1.8450
 Quadrupole moment (field-independent basis, Debye-Ang):
   XX=            -17.1631   YY=            -17.1631   ZZ=            -21.3545
   XY=              0.0000   XZ=              0.0000   YZ=              0.0000

 \\#P ROCCSD(T)=(maxcyc=150, Full)/Gen 5d 7f SCF=(maxcycles=300) Integr
 Normal termination of Gaussian 16 at Tue Feb 13 17:59:26 2018.
