 Gaussian 16, Revision A.03,
 Gaussian 16:  ES64L-G16RevA.03 25-Dec-2016

 ----------------------------------------------------------------------
 #P ROCCSD(T)=(maxcyc=150, Full, SaveAmplitudes, ReadAmplitudes)/Gen 5d
  7f SCF=(maxcycles=300, VShift=400) Integral(NoXCTest) MaxDisk=500GB P
 op=Full Pseudo=Read Guess=Read IOp(5/15=2)
 ----------------------------------------------------------------------

 ---
 CrO
 ---
 Symbolic Z-matrix:
 Charge =  0 Multiplicity = 5

                         Standard orientation:
 ---------------------------------------------------------------------
 Center     Atomic      Atomic             Coordinates (Angstroms)
 Number     Number       Type             X           Y           Z
 ---------------------------------------------------------------------
      1         24           0        0.000000    0.000000    0.450000
      2          8           0        0.000000    0.000000   -1.350000
 ---------------------------------------------------------------------

 SCF Done:  E(ROHF) =  -101.488507886     A.U. after   87 cycles
 E2 =    -0.8508526063D+00 EUMP2 =    -0.10233936049209D+03
 CCSD(T)
 CCSD(T)= -0.10239250006D+03

 Unable to determine electronic state:  an orbital has unidentified symmetry.
 Alpha  occ. eigenvalues --   -3.75240  -2.48125  -2.43222  -2.42337  -1.09912
 Alpha  occ. eigenvalues --   -0.57233  -0.55883  -0.55145  -0.51900  -0.34341
 Alpha  occ. eigenvalues --   -0.32987  -0.32699
 Alpha virt. eigenvalues --   -0.04520   0.00728   0.01382   0.01804   0.03724
 Alpha virt. eigenvalues --    0.04990   0.06219   0.07417   0.07424   0.07637
 Alpha virt. eigenvalues --    0.08345   0.08725   0.12956   0.13777   0.15560

 Mulliken charges and spin densities:
               1          2
     1  Cr   1.167300   3.939411
     2  O   -1.167300   0.060589
 Sum of Mulliken charges =   0.00000   4.00000

 Dipole moment (field-independent basis, Debye):
    X=              0.0000    Y=              0.0000    Z=              9.6966  Tot=              9.6966
 Quadrupole moment (field-independent basis, Debye-Ang):
   XX=            -19.6677   YY=            -18.8321   ZZ=            -24.0714
   XY=              0.0000   XZ=              0.0000   YZ=              0.0000

 \\#P ROCCSD(T)=(maxcyc=150, Full, SaveAmplitudes, ReadAmplitudes)/Gen
 513771\CCSD=-102.340637\CCSD(T)=-102.3925001\RMSD=8.976e-09\PG=C*V [C*
 Normal termination of Gaussian 16 at Fri Apr  6 11:34:04 2018.
