 Gaussian 16, Revision A.03,
 Gaussian 16:  ES64L-G16RevA.03 25-Dec-2016

 ----------------------------------------------------------------------
 #P ROCCSD(T)=(maxcyc=150, Full, SaveAmplitudes, ReadAmplitudes)/Gen 5d
  7f SCF=(maxcycles=300, VShift=400) Integral(NoXCTest) MaxDisk=500GB P
 op=Full Pseudo=Read Guess=Read IOp(5/15=2)
 ----------------------------------------------------------------------

 ---
 MnO
 ---
 Symbolic Z-matrix:
 Charge =  0 Multiplicity = 6

                         Standard orientation:
 ---------------------------------------------------------------------
 Center     Atomic      Atomic             Coordinates (Angstroms)
 Number     Number       Type             X           Y           Z
 ---------------------------------------------------------------------
      1         25           0        0.000000    0.000000    0.412121
      2          8           0        0.000000    0.000000   -1.287879
 ---------------------------------------------------------------------

 SCF Done:  E(ROHF) =  -118.904579077     A.U. after   58 cycles
 E2 =    -0.8980123913D+00 EUMP2 =    -0.11980259146811D+03
 CCSD(T)
 CCSD(T)= -0.11983292916D+03

 The electronic state is 6-SG.
 Alpha  occ. eigenvalues --   -4.13839  -2.76001  -2.76001  -2.75387  -1.12072
 Alpha  occ. eigenvalues --   -0.64499  -0.64499  -0.63697  -0.63697  -0.59541
 Alpha  occ. eigenvalues --   -0.33947  -0.33947  -0.33887
 Alpha virt. eigenvalues --   -0.04541   0.01580   0.01580   0.01859   0.03844
 Alpha virt. eigenvalues --    0.06697   0.06697   0.08214   0.08444   0.08444
 Alpha virt. eigenvalues --    0.09605   0.09605   0.13214   0.14039   0.23043

 Mulliken charges and spin densities:
               1          2
     1  Mn   1.150054   4.893356
     2  O   -1.150054   0.106644
 Sum of Mulliken charges =  -0.00000   5.00000

 Dipole moment (field-independent basis, Debye):
    X=              0.0000    Y=              0.0000    Z=              9.0866  Tot=              9.0866
 Quadrupole moment (field-independent basis, Debye-Ang):
   XX=            -18.8667   YY=            -18.8667   ZZ=            -23.8557
   XY=              0.0000   XZ=              0.0000   YZ=              0.0000

 \\#P ROCCSD(T)=(maxcyc=150, Full, SaveAmplitudes, ReadAmplitudes)/Gen
 4SDQ=-119.8003322\CCSD=-119.7913964\CCSD(T)=-119.8329292\RMSD=9.940e-0
 Normal termination of Gaussian 16 at Sat May  5 07:12:54 2018.
