 Gaussian 16, Revision A.03,
 Gaussian 16:  ES64L-G16RevA.03 25-Dec-2016

 ----------------------------------------------------------------------
 #P ROCCSD(T)=(maxcyc=150, Window=(6,0), SaveAmplitudes, ReadAmplitudes
 )/Gen 5d 7f SCF=(maxcycles=300) Integral(NoXCTest, DKHSO) MaxDisk=500G
 B Pop=Regular Guess=Read
 ----------------------------------------------------------------------

 ---
 CrH
 ---
 Symbolic Z-matrix:
 Charge =  0 Multiplicity = 6

                         Standard orientation:
 ---------------------------------------------------------------------
 Center     Atomic      Atomic             Coordinates (Angstroms)
 Number     Number       Type             X           Y           Z
 ---------------------------------------------------------------------
      1         24           0        0.000000    0.000000    0.068000
      2          1           0        0.000000    0.000000   -1.632000
 ---------------------------------------------------------------------

 SCF Done:  E(ROHF) =  -1050.20503216     A.U. after   23 cycles
 E2 =    -0.5411157158D+00 EUMP2 =    -0.10507461478797D+04
 CCSD(T)
 CCSD(T)= -0.10507878842D+04

 The electronic state is 6-SG.
 Alpha  occ. eigenvalues -- -222.20314 -26.79597 -22.43004 -22.43004 -22.42979
 Alpha  occ. eigenvalues --   -3.66909  -2.42369  -2.42369  -2.38343  -0.54439
 Alpha  occ. eigenvalues --   -0.54439  -0.51256  -0.51256  -0.40729  -0.25997
 Alpha virt. eigenvalues --    0.01245   0.01245   0.01988   0.02376   0.04614
 Alpha virt. eigenvalues --    0.05023   0.05023   0.05338   0.05338   0.05660
 Alpha virt. eigenvalues --    0.05660   0.06805   0.09582   0.12465   0.16772

 Mulliken charges and spin densities:
               1          2
     1  Cr   0.321786   4.980291
     2  H   -0.321786   0.019709
 Sum of Mulliken charges =  -0.00000   5.00000

 Dipole moment (field-independent basis, Debye):
    X=             -0.0000    Y=              0.0000    Z=              2.1440  Tot=              2.1440
 Quadrupole moment (field-independent basis, Debye-Ang):
   XX=            -17.3293   YY=            -17.3293   ZZ=            -24.5595
   XY=              0.0000   XZ=              0.0000   YZ=              0.0000

 1\1\GINC-C505-052\SP\ROCCSD(T)-RW\Gen\Cr1H1(6)\AANNABE\26-Feb-2018\0\\
 #P ROCCSD(T)=(maxcyc=150, Window=(6,0), SaveAmplitudes, ReadAmplitudes
 )/Gen 5d 7f SCF=(maxcycles=300) Integral(NoXCTest, DKHSO) MaxDisk=500G
 B Pop=Regular Guess=Read\\CrH\\0,6\Cr,0,0.,0.,0.\H,0,0.,0.,1.7\\Versio
 n=ES64L-G16RevA.03\State=6-SG\HF=-1050.2050322\MP2=-1050.7461479\PUHF=
 -1050.2050322\PMP2-0=-1050.7461479\CCSD=-1050.7720898\CCSD(T)=-1050.78
 78842\RMSD=6.581e-09\PG=C*V [C*(H1Cr1)]\\@

 Normal termination of Gaussian 16 at Mon Feb 26 01:50:04 2018.
