 Gaussian 16, Revision A.03,
 Gaussian 16:  ES64L-G16RevA.03 25-Dec-2016

 ----------------------------------------------------------------------
 #P ROCCSD(T)=(maxcyc=150, Full, SaveAmplitudes, ReadAmplitudes)/Gen 5d
  7f SCF=(maxcycles=300) Integral(NoXCTest) MaxDisk=500GB Pop=Regular P
 seudo=Read Guess=Read IOp(5/15=2)
 ----------------------------------------------------------------------

 ---
 MnH
 ---
 Symbolic Z-matrix:
 Charge =  0 Multiplicity = 7

                         Standard orientation:
 ---------------------------------------------------------------------
 Center     Atomic      Atomic             Coordinates (Angstroms)
 Number     Number       Type             X           Y           Z
 ---------------------------------------------------------------------
      1         25           0        0.000000    0.000000    0.069231
      2          1           0        0.000000    0.000000   -1.730769
 ---------------------------------------------------------------------

 SCF Done:  E(ROHF) =  -104.252744793     A.U. after   20 cycles
 E2 =    -0.5833068311D+00 EUMP2 =    -0.10483605162414D+03
 CCSD(T)
 CCSD(T)= -0.10486002185D+03

 The electronic state is 7-SG.
 Alpha  occ. eigenvalues --   -4.10345  -2.76535  -2.76535  -2.76397  -0.64514
 Alpha  occ. eigenvalues --   -0.64514  -0.64023  -0.63801  -0.63801  -0.40137
 Alpha  occ. eigenvalues --   -0.26609
 Alpha virt. eigenvalues --    0.01141   0.01141   0.02340   0.03119   0.05595
 Alpha virt. eigenvalues --    0.05595   0.08209   0.08450   0.08450   0.08927
 Alpha virt. eigenvalues --    0.08927   0.09962   0.13753   0.19221   0.22390

 Mulliken charges and spin densities:
               1          2
     1  Mn   0.429181   5.961478
     2  H   -0.429181   0.038522
 Sum of Mulliken charges =  -0.00000   6.00000

 Dipole moment (field-independent basis, Debye):
    X=              0.0000    Y=              0.0000    Z=              1.6347  Tot=              1.6347
 Quadrupole moment (field-independent basis, Debye-Ang):
   XX=            -16.1560   YY=            -16.1560   ZZ=            -26.6721
   XY=              0.0000   XZ=              0.0000   YZ=              0.0000

 \\#P ROCCSD(T)=(maxcyc=150, Full, SaveAmplitudes, ReadAmplitudes)/Gen
 .8431637\CCSD=-104.8440187\CCSD(T)=-104.8600218\RMSD=5.095e-09\PG=C*V
 Normal termination of Gaussian 16 at Mon Feb 26 12:28:06 2018.
