 Gaussian 16, Revision A.03,
 Gaussian 16:  ES64L-G16RevA.03 25-Dec-2016

 ----------------------------------------------------------------------
 #P ROCCSD(T)=(MaxCyc=150, Full)/Gen SCF=(maxcycle=400, vshift=200) Pse
 udo=Read Integral(NoXCTest) Pop=Regular MaxDisk=500GB Guess=Read IOp(5
 /15=2)
 ----------------------------------------------------------------------

 ---
 CoH
 ---
 Symbolic Z-matrix:
 Charge =  0 Multiplicity = 3

                         Standard orientation:
 ---------------------------------------------------------------------
 Center     Atomic      Atomic             Coordinates (Angstroms)
 Number     Number       Type             X           Y           Z
 ---------------------------------------------------------------------
      1         27           0        0.000000    0.000000    0.053571
      2          1           0        0.000000    0.000000   -1.446429
 ---------------------------------------------------------------------

 SCF Done:  E(ROHF) =  -144.805102779     A.U. after   27 cycles
 E2 =    -0.9257225912D+00 EUMP2 =    -0.14573082536992D+03
 CCSD(T)
 CCSD(T)= -0.14570542589D+03

 Unable to determine electronic state:  partially filled degenerate orbitals.
 Alpha  occ. eigenvalues --   -4.53738  -2.95604  -2.95579  -2.95578  -0.49118
 Alpha  occ. eigenvalues --   -0.48877  -0.44259  -0.44077  -0.44077  -0.32734
 Alpha virt. eigenvalues --    0.00008   0.02356   0.02356   0.02703   0.04137
 Alpha virt. eigenvalues --    0.06430   0.06635   0.06646   0.06882   0.06882
 Alpha virt. eigenvalues --    0.08247   0.08247   0.08740   0.14633   0.18514

 Mulliken charges and spin densities:
               1          2
     1  Co   0.332530   1.987095
     2  H   -0.332530   0.012905
 Sum of Mulliken charges =  -0.00000   2.00000

 Dipole moment (field-independent basis, Debye):
    X=              0.0000    Y=              0.0000    Z=              4.2889  Tot=              4.2889
 Quadrupole moment (field-independent basis, Debye-Ang):
   XX=            -13.9218   YY=            -13.9218   ZZ=            -17.6830
   XY=              0.0000   XZ=              0.0000   YZ=              0.0000

 \\#P ROCCSD(T)=(MaxCyc=150, Full)/Gen SCF=(maxcycle=400, vshift=200) P
 \PMP2-0=-145.7308254\MP4SDQ=-145.6978255\CCSD=-145.6725551\CCSD(T)=-14
 Normal termination of Gaussian 16 at Thu May  3 18:13:14 2018.
