 Gaussian 16, Revision A.03,
 Gaussian 16:  ES64L-G16RevA.03 25-Dec-2016

 ----------------------------------------------------------------------
 #P ROCCSD(T)=(MaxCyc=150, Full)/Gen SCF=(maxcycle=400, vshift=200) Pse
 udo=Read Integral(NoXCTest) Pop=Regular MaxDisk=500GB Guess=Read IOp(5
 /15=2)
 ----------------------------------------------------------------------

 ---
 CoH
 ---
 Symbolic Z-matrix:
 Charge =  0 Multiplicity = 3

                         Standard orientation:
 ---------------------------------------------------------------------
 Center     Atomic      Atomic             Coordinates (Angstroms)
 Number     Number       Type             X           Y           Z
 ---------------------------------------------------------------------
      1         27           0        0.000000    0.000000    0.053571
      2          1           0        0.000000    0.000000   -1.446429
 ---------------------------------------------------------------------

 SCF Done:  E(ROHF) =  -144.804760873     A.U. after   34 cycles
 E2 =    -0.9056305422D+00 EUMP2 =    -0.14571039141530D+03
 CCSD(T)
 CCSD(T)= -0.14568725141D+03

 Unable to determine electronic state:  partially filled degenerate orbitals.
 Alpha  occ. eigenvalues --   -4.53736  -2.95606  -2.95581  -2.95581  -0.49121
 Alpha  occ. eigenvalues --   -0.48879  -0.44254  -0.44072  -0.44072  -0.32734
 Alpha virt. eigenvalues --    0.00062   0.02435   0.02435   0.03012   0.04789
 Alpha virt. eigenvalues --    0.06992   0.07343   0.07356   0.07560   0.07560
 Alpha virt. eigenvalues --    0.08644   0.08644   0.10026   0.18602   0.20082

 Mulliken charges and spin densities:
               1          2
     1  Co   0.356420   1.991521
     2  H   -0.356420   0.008479
 Sum of Mulliken charges =  -0.00000   2.00000

 Dipole moment (field-independent basis, Debye):
    X=              0.0000    Y=              0.0000    Z=              4.2894  Tot=              4.2894
 Quadrupole moment (field-independent basis, Debye-Ang):
   XX=            -13.9227   YY=            -13.9227   ZZ=            -17.6824
   XY=              0.0000   XZ=              0.0000   YZ=              0.0000

 \\#P ROCCSD(T)=(MaxCyc=150, Full)/Gen SCF=(maxcycle=400, vshift=200) P
 \PMP2-0=-145.7103914\MP4SDQ=-145.6805916\CCSD=-145.6549807\CCSD(T)=-14
 Normal termination of Gaussian 16 at Thu May  3 15:56:58 2018.
