 Gaussian 16, Revision A.03,
 Gaussian 16:  ES64L-G16RevA.03 25-Dec-2016

 ----------------------------------------------------------------------
 #P ROCCSD(T)=(MaxCyc=150, Full)/Gen SCF=(maxcycle=400, vshift=200) Pse
 udo=Read Integral(NoXCTest) Pop=Regular MaxDisk=500GB Guess=Read IOp(5
 /15=2)
 ----------------------------------------------------------------------

 ---
 CoH
 ---
 Symbolic Z-matrix:
 Charge =  0 Multiplicity = 3

                         Standard orientation:
 ---------------------------------------------------------------------
 Center     Atomic      Atomic             Coordinates (Angstroms)
 Number     Number       Type             X           Y           Z
 ---------------------------------------------------------------------
      1         27           0        0.000000    0.000000    0.053571
      2          1           0        0.000000    0.000000   -1.446429
 ---------------------------------------------------------------------

 SCF Done:  E(ROHF) =  -144.803048268     A.U. after   53 cycles
 E2 =    -0.8642975930D+00 EUMP2 =    -0.14566734586119D+03
 CCSD(T)
 CCSD(T)= -0.14564582538D+03

 Unable to determine electronic state:  partially filled degenerate orbitals.
 Alpha  occ. eigenvalues --   -4.53748  -2.95621  -2.95596  -2.95596  -0.49119
 Alpha  occ. eigenvalues --   -0.48878  -0.44250  -0.44065  -0.44065  -0.32736
 Alpha virt. eigenvalues --    0.00089   0.02687   0.02687   0.03319   0.05059
 Alpha virt. eigenvalues --    0.09453   0.09453   0.10208   0.11330   0.11372
 Alpha virt. eigenvalues --    0.11531   0.11561   0.11561   0.18961   0.25351

 Mulliken charges and spin densities:
               1          2
     1  Co   0.360786   1.978038
     2  H   -0.360786   0.021962
 Sum of Mulliken charges =  -0.00000   2.00000

 Dipole moment (field-independent basis, Debye):
    X=              0.0000    Y=              0.0000    Z=              4.2933  Tot=              4.2933
 Quadrupole moment (field-independent basis, Debye-Ang):
   XX=            -13.9344   YY=            -13.9344   ZZ=            -17.6777
   XY=              0.0000   XZ=              0.0000   YZ=              0.0000

 \\#P ROCCSD(T)=(MaxCyc=150, Full)/Gen SCF=(maxcycle=400, vshift=200) P
 \PMP2-0=-145.6673459\MP4SDQ=-145.6412585\CCSD=-145.6151269\CCSD(T)=-14
 Normal termination of Gaussian 16 at Thu May  3 15:11:30 2018.
