 Gaussian 16, Revision A.03,
 Gaussian 16:  ES64L-G16RevA.03 25-Dec-2016

 ----------------------------------------------------------------------
 #P ROCCSD(T)=(maxcyc=150, Full, SaveAmplitudes, ReadAmplitudes)/Gen 5d
  7f SCF=(maxcycles=300) Integral(NoXCTest) MaxDisk=500GB Pop=Regular P
 seudo=Read Guess=Read IOp(5/15=2)
 ----------------------------------------------------------------------

 ---
 TiO
 ---
 Symbolic Z-matrix:
 Charge =  0 Multiplicity = 3

                         Standard orientation:
 ---------------------------------------------------------------------
 Center     Atomic      Atomic             Coordinates (Angstroms)
 Number     Number       Type             X           Y           Z
 ---------------------------------------------------------------------
      1         22           0        0.000000    0.000000    0.373333
      2          8           0        0.000000    0.000000   -1.026667
 ---------------------------------------------------------------------

 SCF Done:  E(ROHF) =  -73.2619920508     A.U. after   22 cycles
 E2 =    -0.7377336232D+00 EUMP2 =    -0.73999725673924D+02
 CCSD(T)
 CCSD(T)= -0.74024612817D+02

 Unable to determine electronic state:  an orbital has unidentified symmetry.
 Alpha  occ. eigenvalues --   -2.95040  -1.92426  -1.85349  -1.85349  -1.16465
 Alpha  occ. eigenvalues --   -0.53676  -0.53676  -0.50497  -0.38881  -0.23259
 Alpha virt. eigenvalues --    0.01008   0.01008   0.02202   0.02530   0.04639
 Alpha virt. eigenvalues --    0.04639   0.04996   0.05112   0.05284   0.05818
 Alpha virt. eigenvalues --    0.05818   0.08112   0.11539   0.12878   0.14391

 Mulliken charges and spin densities:
               1          2
     1  Ti   0.797486   2.024125
     2  O   -0.797486  -0.024125
 Sum of Mulliken charges =   0.00000   2.00000

 Dipole moment (field-independent basis, Debye):
    X=              0.0000    Y=              0.0000    Z=              1.9023  Tot=              1.9023
 Quadrupole moment (field-independent basis, Debye-Ang):
   XX=            -21.7484   YY=            -21.7484   ZZ=            -27.7478
   XY=              0.0000   XZ=              0.0000   YZ=              0.0000

 \\#P ROCCSD(T)=(maxcyc=150, Full, SaveAmplitudes, ReadAmplitudes)/Gen
 .9870367\CCSD(T)=-74.0246128\RMSD=1.449e-09\PG=C*V [C*(O1Ti1)]\\@
 Normal termination of Gaussian 16 at Fri Mar  9 15:14:55 2018.
