 Gaussian 16, Revision A.03,
 Gaussian 16:  ES64L-G16RevA.03 25-Dec-2016

 ----------------------------------------------------------------------
 #P ROCCSD(T)=(maxcyc=150, Full, SaveAmplitudes, ReadAmplitudes)/Gen 5d
  7f SCF=(maxcycles=300) Integral(NoXCTest) MaxDisk=500GB Pop=Regular P
 seudo=Read Guess=Read
 ----------------------------------------------------------------------

 ---
 CrH
 ---
 Symbolic Z-matrix:
 Charge =  0 Multiplicity = 6

                         Standard orientation:
 ---------------------------------------------------------------------
 Center     Atomic      Atomic             Coordinates (Angstroms)
 Number     Number       Type             X           Y           Z
 ---------------------------------------------------------------------
      1         24           0        0.000000    0.000000    0.068000
      2          1           0        0.000000    0.000000   -1.632000
 ---------------------------------------------------------------------

 SCF Done:  E(ROHF) =  -86.3763341251     A.U. after   23 cycles
 E2 =    -0.5456274468D+00 EUMP2 =    -0.86921961571933D+02
 CCSD(T)
 CCSD(T)= -0.86961600210D+02

 The electronic state is 6-SG.
 Alpha  occ. eigenvalues --   -3.85122  -2.57125  -2.57125  -2.52590  -0.50118
 Alpha  occ. eigenvalues --   -0.50118  -0.47260  -0.47260  -0.41618  -0.26924
 Alpha virt. eigenvalues --    0.01207   0.01207   0.01972   0.02392   0.04628
 Alpha virt. eigenvalues --    0.04901   0.04901   0.05360   0.05360   0.05647
 Alpha virt. eigenvalues --    0.05647   0.06867   0.09495   0.12288   0.16944

 Mulliken charges and spin densities:
               1          2
     1  Cr   0.331389   4.981751
     2  H   -0.331389   0.018249
 Sum of Mulliken charges =  -0.00000   5.00000

 Dipole moment (field-independent basis, Debye):
    X=              0.0000    Y=              0.0000    Z=              2.0410  Tot=              2.0410
 Quadrupole moment (field-independent basis, Debye-Ang):
   XX=            -17.2088   YY=            -17.2088   ZZ=            -24.1863
   XY=              0.0000   XZ=              0.0000   YZ=              0.0000

 \\#P ROCCSD(T)=(maxcyc=150, Full, SaveAmplitudes, ReadAmplitudes)/Gen
 763341\PMP2-0=-86.9219616\CCSD=-86.9441386\CCSD(T)=-86.9616002\RMSD=4.
 Normal termination of Gaussian 16 at Mon Feb 26 11:09:14 2018.
