 Gaussian 16, Revision A.03,
 Gaussian 16:  ES64L-G16RevA.03 25-Dec-2016

 ----------------------------------------------------------------------
 #P ROCCSD(T)=(maxcyc=150, Full, SaveAmplitudes, ReadAmplitudes)/Gen 5d
  7f SCF=(maxcycles=300) Integral(NoXCTest) MaxDisk=500GB Pop=Regular P
 seudo=Read Guess=Read
 ----------------------------------------------------------------------

 ---
 MnO
 ---
 Symbolic Z-matrix:
 Charge =  0 Multiplicity = 6

                         Standard orientation:
 ---------------------------------------------------------------------
 Center     Atomic      Atomic             Coordinates (Angstroms)
 Number     Number       Type             X           Y           Z
 ---------------------------------------------------------------------
      1         25           0        0.000000    0.000000    0.315152
      2          8           0        0.000000    0.000000   -0.984848
 ---------------------------------------------------------------------

 SCF Done:  E(ROHF) =  -119.202202750     A.U. after   22 cycles
 E2 =    -0.9882530022D+00 EUMP2 =    -0.12019045575195D+03
 CCSD(T)
 CCSD(T)= -0.12019685111D+03

 The electronic state is 6-SG.
 Alpha  occ. eigenvalues --   -4.07715  -2.73465  -2.73465  -2.73193  -1.27649
 Alpha  occ. eigenvalues --   -0.73220  -0.73220  -0.61379  -0.61379  -0.60039
 Alpha  occ. eigenvalues --   -0.40817  -0.40817  -0.30286
 Alpha virt. eigenvalues --    0.01802   0.02215   0.02215   0.02922   0.05332
 Alpha virt. eigenvalues --    0.05972   0.05972   0.05974   0.05974   0.07525
 Alpha virt. eigenvalues --    0.07525   0.07682   0.11223   0.14667   0.18016

 Mulliken charges and spin densities:
               1          2
     1  Mn   1.064995   4.744786
     2  O   -1.064995   0.255214
 Sum of Mulliken charges =  -0.00000   5.00000

 Dipole moment (field-independent basis, Debye):
    X=              0.0000    Y=              0.0000    Z=              2.7269  Tot=              2.7269
 Quadrupole moment (field-independent basis, Debye-Ang):
   XX=            -19.7656   YY=            -19.7656   ZZ=            -22.8677
   XY=              0.0000   XZ=              0.0000   YZ=              0.0000

 \\#P ROCCSD(T)=(maxcyc=150, Full, SaveAmplitudes, ReadAmplitudes)/Gen
 9.2022027\PMP2-0=-120.1904558\CCSD=-120.1548805\CCSD(T)=-120.1968511\R
 Normal termination of Gaussian 16 at Wed Mar 14 02:37:58 2018.
