 Gaussian 16, Revision A.03,
 Gaussian 16:  ES64L-G16RevA.03 25-Dec-2016

 ----------------------------------------------------------------------
 #P ROCCSD(T)=(MaxCyc=150, Full)/Gen SCF=(maxcycle=400) Pseudo=Read Int
 egral(NoXCTest) Pop=Regular MaxDisk=500GB Guess=Read IOp(5/15=2)
 ----------------------------------------------------------------------

 ---
 CuH
 ---
 Symbolic Z-matrix:
 Charge =  0 Multiplicity = 1

                         Standard orientation:
 ---------------------------------------------------------------------
 Center     Atomic      Atomic             Coordinates (Angstroms)
 Number     Number       Type             X           Y           Z
 ---------------------------------------------------------------------
      1         29           0        0.000000    0.000000    0.053333
      2          1           0        0.000000    0.000000   -1.546667
 ---------------------------------------------------------------------

 SCF Done:  E(ROHF) =  -196.780104121     A.U. after   10 cycles
 E2 =    -0.1159322883D+01 EUMP2 =    -0.19793942700450D+03
 CCSD(T)
 CCSD(T)= -0.19786134034D+03

 The electronic state is 1-SG.
 Alpha  occ. eigenvalues --   -4.93714  -3.34749  -3.34539  -3.34539  -0.49701
 Alpha  occ. eigenvalues --   -0.49487  -0.49487  -0.49460  -0.49460  -0.33687
 Alpha virt. eigenvalues --   -0.00095   0.02608   0.02608   0.03331   0.04815
 Alpha virt. eigenvalues --    0.08877   0.08877   0.08908   0.13421   0.13519
 Alpha virt. eigenvalues --    0.13519   0.13817   0.13817   0.19663   0.22011

 Mulliken charges and spin densities:
               1          2
     1  Cu   0.355744   0.000000
     2  H   -0.355744   0.000000
 Sum of Mulliken charges =   0.00000   0.00000

 Dipole moment (field-independent basis, Debye):
    X=              0.0000    Y=              0.0000    Z=              4.2112  Tot=              4.2112
 Quadrupole moment (field-independent basis, Debye-Ang):
   XX=            -13.5411   YY=            -13.5411   ZZ=            -16.5716
   XY=              0.0000   XZ=              0.0000   YZ=              0.0000

 P ROCCSD(T)=(MaxCyc=150, Full)/Gen SCF=(maxcycle=400) Pseudo=Read Inte
 -0=-197.939427\MP4SDQ=-197.8960823\CCSD=-197.8223054\CCSD(T)=-197.8613
 Normal termination of Gaussian 16 at Wed Apr  4 19:54:25 2018.
