 Gaussian 16, Revision A.03,
 Gaussian 16:  ES64L-G16RevA.03 25-Dec-2016

 ----------------------------------------------------------------------
 #P ROCCSD(T)=(MaxCyc=150, Full)/Gen SCF=(maxcycle=400) Pseudo=Read Int
 egral(NoXCTest) Pop=Regular MaxDisk=500GB Guess=Read IOp(5/15=2)
 ----------------------------------------------------------------------

 ---
 CuH
 ---
 Symbolic Z-matrix:
 Charge =  0 Multiplicity = 1

                         Standard orientation:
 ---------------------------------------------------------------------
 Center     Atomic      Atomic             Coordinates (Angstroms)
 Number     Number       Type             X           Y           Z
 ---------------------------------------------------------------------
      1         29           0        0.000000    0.000000    0.053333
      2          1           0        0.000000    0.000000   -1.546667
 ---------------------------------------------------------------------

 SCF Done:  E(ROHF) =  -196.777082227     A.U. after   13 cycles
 E2 =    -0.1107666400D+01 EUMP2 =    -0.19788474862698D+03
 CCSD(T)
 CCSD(T)= -0.19780815265D+03

 The electronic state is 1-SG.
 Alpha  occ. eigenvalues --   -4.93752  -3.34785  -3.34569  -3.34569  -0.49702
 Alpha  occ. eigenvalues --   -0.49477  -0.49477  -0.49454  -0.49454  -0.33682
 Alpha virt. eigenvalues --   -0.00083   0.02900   0.02900   0.03678   0.05159
 Alpha virt. eigenvalues --    0.10019   0.10236   0.10236   0.17159   0.19682
 Alpha virt. eigenvalues --    0.19682   0.20240   0.20240   0.20922   0.25869

 Mulliken charges and spin densities:
               1          2
     1  Cu   0.378154   0.000000
     2  H   -0.378154   0.000000
 Sum of Mulliken charges =   0.00000   0.00000

 Dipole moment (field-independent basis, Debye):
    X=              0.0000    Y=              0.0000    Z=              4.2216  Tot=              4.2216
 Quadrupole moment (field-independent basis, Debye-Ang):
   XX=            -13.5511   YY=            -13.5511   ZZ=            -16.5522
   XY=              0.0000   XZ=              0.0000   YZ=              0.0000

 P ROCCSD(T)=(MaxCyc=150, Full)/Gen SCF=(maxcycle=400) Pseudo=Read Inte
 2-0=-197.8847486\MP4SDQ=-197.8456987\CCSD=-197.7711788\CCSD(T)=-197.80
 Normal termination of Gaussian 16 at Wed Apr  4 19:00:34 2018.
