 Gaussian 16, Revision A.03,
 Gaussian 16:  ES64L-G16RevA.03 25-Dec-2016

 ----------------------------------------------------------------------
 #P ROCCSD(T)=(MaxCyc=150, Full)/Gen SCF=(maxcycle=400) Pseudo=Read Int
 egral(NoXCTest) Pop=Regular MaxDisk=500GB Guess=Read IOp(5/15=2)
 ----------------------------------------------------------------------

 ---
 CuH
 ---
 Symbolic Z-matrix:
 Charge =  0 Multiplicity = 1

                         Standard orientation:
 ---------------------------------------------------------------------
 Center     Atomic      Atomic             Coordinates (Angstroms)
 Number     Number       Type             X           Y           Z
 ---------------------------------------------------------------------
      1         29           0        0.000000    0.000000    0.053333
      2          1           0        0.000000    0.000000   -1.546667
 ---------------------------------------------------------------------

 SCF Done:  E(ROHF) =  -196.780255710     A.U. after    7 cycles
 E2 =    -0.1183922216D+01 EUMP2 =    -0.19796417792625D+03
 CCSD(T)
 CCSD(T)= -0.19788385340D+03

 The electronic state is 1-SG.
 Alpha  occ. eigenvalues --   -4.93718  -3.34750  -3.34540  -3.34540  -0.49702
 Alpha  occ. eigenvalues --   -0.49489  -0.49489  -0.49463  -0.49463  -0.33688
 Alpha virt. eigenvalues --   -0.00150   0.02524   0.02524   0.03048   0.04078
 Alpha virt. eigenvalues --    0.07696   0.08515   0.08515   0.12142   0.12142
 Alpha virt. eigenvalues --    0.12168   0.12408   0.12408   0.15010   0.18507

 Mulliken charges and spin densities:
               1          2
     1  Cu   0.309749   0.000000
     2  H   -0.309749   0.000000
 Sum of Mulliken charges =  -0.00000   0.00000

 Dipole moment (field-independent basis, Debye):
    X=              0.0000    Y=              0.0000    Z=              4.2094  Tot=              4.2094
 Quadrupole moment (field-independent basis, Debye-Ang):
   XX=            -13.5396   YY=            -13.5396   ZZ=            -16.5743
   XY=              0.0000   XZ=              0.0000   YZ=              0.0000

 P ROCCSD(T)=(MaxCyc=150, Full)/Gen SCF=(maxcycle=400) Pseudo=Read Inte
 2-0=-197.9641779\MP4SDQ=-197.9173622\CCSD=-197.8440674\CCSD(T)=-197.88
 Normal termination of Gaussian 16 at Wed Apr  4 22:45:13 2018.
