 Gaussian 16, Revision A.03,
 Gaussian 16:  ES64L-G16RevA.03 25-Dec-2016

 ----------------------------------------------------------------------
 #P ROCCSD(T)=(maxcyc=150, Full, SaveAmplitudes, ReadAmplitudes)/Gen 5d
  7f SCF=(maxcycles=300) Integral(NoXCTest) MaxDisk=500GB Pop=Regular P
 seudo=Read Guess=Read
 ----------------------------------------------------------------------

 ---
 MnO
 ---
 Symbolic Z-matrix:
 Charge =  0 Multiplicity = 6

                         Standard orientation:
 ---------------------------------------------------------------------
 Center     Atomic      Atomic             Coordinates (Angstroms)
 Number     Number       Type             X           Y           Z
 ---------------------------------------------------------------------
      1         25           0        0.000000    0.000000    0.387879
      2          8           0        0.000000    0.000000   -1.212121
 ---------------------------------------------------------------------

 SCF Done:  E(ROHF) =  -119.350462223     A.U. after   24 cycles
 E2 =    -0.9611181893D+00 EUMP2 =    -0.12031158041202D+03
 CCSD(T)
 CCSD(T)= -0.12033845059D+03

 The electronic state is 6-SG.
 Alpha  occ. eigenvalues --   -4.07958  -2.74124  -2.74124  -2.73417  -1.14359
 Alpha  occ. eigenvalues --   -0.64198  -0.64198  -0.62423  -0.62423  -0.56950
 Alpha  occ. eigenvalues --   -0.34882  -0.34882  -0.34132
 Alpha virt. eigenvalues --   -0.03588   0.01526   0.01526   0.01931   0.03390
 Alpha virt. eigenvalues --    0.05820   0.05820   0.05974   0.05974   0.06301
 Alpha virt. eigenvalues --    0.07224   0.07224   0.11807   0.12782   0.17916

 Mulliken charges and spin densities:
               1          2
     1  Mn   1.206953   4.868596
     2  O   -1.206953   0.131404
 Sum of Mulliken charges =  -0.00000   5.00000

 Dipole moment (field-independent basis, Debye):
    X=              0.0000    Y=              0.0000    Z=              8.3746  Tot=              8.3746
 Quadrupole moment (field-independent basis, Debye-Ang):
   XX=            -18.7415   YY=            -18.7415   ZZ=            -22.8884
   XY=              0.0000   XZ=              0.0000   YZ=              0.0000

 \\#P ROCCSD(T)=(maxcyc=150, Full, SaveAmplitudes, ReadAmplitudes)/Gen
 9.3504622\PMP2-0=-120.3115804\CCSD=-120.2946643\CCSD(T)=-120.3384506\R
 Normal termination of Gaussian 16 at Tue Mar 13 14:10:30 2018.
