 Gaussian 16, Revision A.03,
 Gaussian 16:  ES64L-G16RevA.03 25-Dec-2016

 ----------------------------------------------------------------------
 #P ROCCSD(T)=(maxcyc=150, Full, SaveAmplitudes, ReadAmplitudes)/Gen 5d
  7f SCF=(maxcycles=300) Integral(NoXCTest) MaxDisk=500GB Pop=Regular P
 seudo=Read Guess=Read
 ----------------------------------------------------------------------

 ---
 MnH
 ---
 Symbolic Z-matrix:
 Charge =  0 Multiplicity = 7

                         Standard orientation:
 ---------------------------------------------------------------------
 Center     Atomic      Atomic             Coordinates (Angstroms)
 Number     Number       Type             X           Y           Z
 ---------------------------------------------------------------------
      1         25           0        0.000000    0.000000    0.042308
      2          1           0        0.000000    0.000000   -1.057692
 ---------------------------------------------------------------------

 SCF Done:  E(ROHF) =  -103.878147008     A.U. after   22 cycles
 E2 =    -0.6325054996D+00 EUMP2 =    -0.10451065250759D+03
 CCSD(T)
 CCSD(T)= -0.10452722797D+03

 The electronic state is 7-SG.
 Alpha  occ. eigenvalues --   -4.23789  -2.80300  -2.78718  -2.78718  -0.70004
 Alpha  occ. eigenvalues --   -0.64129  -0.64129  -0.63522  -0.63522  -0.40254
 Alpha  occ. eigenvalues --   -0.22708
 Alpha virt. eigenvalues --    0.01250   0.01250   0.01819   0.03267   0.05069
 Alpha virt. eigenvalues --    0.05069   0.05768   0.05822   0.05822   0.06113
 Alpha virt. eigenvalues --    0.06113   0.07991   0.14061   0.15924   0.17669

 Mulliken charges and spin densities:
               1          2
     1  Mn   0.714422   5.875934
     2  H   -0.714422   0.124066
 Sum of Mulliken charges =  -0.00000   6.00000

 Dipole moment (field-independent basis, Debye):
    X=              0.0000    Y=              0.0000    Z=             -0.7490  Tot=              0.7490
 Quadrupole moment (field-independent basis, Debye-Ang):
   XX=            -16.0531   YY=            -16.0531   ZZ=            -25.5529
   XY=              0.0000   XZ=              0.0000   YZ=              0.0000

 \\#P ROCCSD(T)=(maxcyc=150, Full, SaveAmplitudes, ReadAmplitudes)/Gen
 .878147\PMP2-0=-104.5106525\CCSD=-104.5086921\CCSD(T)=-104.527228\RMSD
 Normal termination of Gaussian 16 at Sun Feb 25 20:33:52 2018.
