 Gaussian 16, Revision A.03,
 Gaussian 16:  ES64L-G16RevA.03 25-Dec-2016

 ----------------------------------------------------------------------
 #P ROCCSD(T)=(maxcyc=150, Full, SaveAmplitudes, ReadAmplitudes)/Gen 5d
  7f SCF=(maxcycles=300, VShift=400) Integral(NoXCTest) MaxDisk=500GB P
 op=Full Pseudo=Read Guess=Read IOp(5/15=2)
 ----------------------------------------------------------------------

 ---
 MnH
 ---
 Symbolic Z-matrix:
 Charge =  0 Multiplicity = 7

                         Standard orientation:
 ---------------------------------------------------------------------
 Center     Atomic      Atomic             Coordinates (Angstroms)
 Number     Number       Type             X           Y           Z
 ---------------------------------------------------------------------
      1         25           0        0.000000    0.000000    0.061538
      2          1           0        0.000000    0.000000   -1.538462
 ---------------------------------------------------------------------

 SCF Done:  E(ROHF) =  -104.248541869     A.U. after   35 cycles
 E2 =    -0.5789636172D+00 EUMP2 =    -0.10482750548640D+03
 CCSD(T)
 CCSD(T)= -0.10484932949D+03

 The electronic state is 7-SG.
 Alpha  occ. eigenvalues --   -4.13834  -2.76594  -2.76594  -2.76511  -0.65181
 Alpha  occ. eigenvalues --   -0.65004  -0.65004  -0.64373  -0.64373  -0.41412
 Alpha  occ. eigenvalues --   -0.25661
 Alpha virt. eigenvalues --    0.01310   0.01310   0.02299   0.03159   0.05798
 Alpha virt. eigenvalues --    0.05798   0.08372   0.08484   0.08484   0.08952
 Alpha virt. eigenvalues --    0.08952   0.09585   0.14049   0.20176   0.22779

 Mulliken charges and spin densities:
               1          2
     1  Mn   0.437890   5.957445
     2  H   -0.437890   0.042555
 Sum of Mulliken charges =  -0.00000   6.00000

 Dipole moment (field-independent basis, Debye):
    X=              0.0000    Y=              0.0000    Z=              0.9643  Tot=              0.9643
 Quadrupole moment (field-independent basis, Debye-Ang):
   XX=            -16.0386   YY=            -16.0386   ZZ=            -25.9404
   XY=              0.0000   XZ=              0.0000   YZ=              0.0000

 \\#P ROCCSD(T)=(maxcyc=150, Full, SaveAmplitudes, ReadAmplitudes)/Gen
 4SDQ=-104.8327955\CCSD=-104.8334727\CCSD(T)=-104.8493295\RMSD=7.064e-0
 Normal termination of Gaussian 16 at Wed Apr  4 09:13:56 2018.
