 Gaussian 16, Revision A.03,
 Gaussian 16:  ES64L-G16RevA.03 25-Dec-2016

 ----------------------------------------------------------------------
 #P ROCCSD(T)=(maxcyc=150, Full, SaveAmplitudes, ReadAmplitudes)/Gen 5d
  7f SCF=(maxcycles=300) Integral(NoXCTest) MaxDisk=500GB Pop=Regular P
 seudo=Read Guess=Read IOp(5/15=2)
 ----------------------------------------------------------------------

 ---
 ScO
 ---
 Symbolic Z-matrix:
 Charge =  0 Multiplicity = 2

                         Standard orientation:
 ---------------------------------------------------------------------
 Center     Atomic      Atomic             Coordinates (Angstroms)
 Number     Number       Type             X           Y           Z
 ---------------------------------------------------------------------
      1         21           0        0.000000    0.000000    0.386207
      2          8           0        0.000000    0.000000   -1.013793
 ---------------------------------------------------------------------

 SCF Done:  E(ROHF) =  -61.8944746440     A.U. after   16 cycles
 E2 =    -0.6736143293D+00 EUMP2 =    -0.62568088973229D+02
 CCSD(T)
 CCSD(T)= -0.62595605195D+02

 The electronic state is 2-SG.
 Alpha  occ. eigenvalues --   -2.59164  -1.71496  -1.54781  -1.54781  -1.09422
 Alpha  occ. eigenvalues --   -0.52536  -0.52536  -0.46219  -0.21021
 Alpha virt. eigenvalues --    0.00847   0.00847   0.02202   0.02227   0.03750
 Alpha virt. eigenvalues --    0.03750   0.03838   0.03838   0.03992   0.04562
 Alpha virt. eigenvalues --    0.04562   0.07110   0.10403   0.10403   0.10950

 Mulliken charges and spin densities:
               1          2
     1  Sc   1.252894   0.988753
     2  O   -1.252894   0.011247
 Sum of Mulliken charges =  -0.00000   1.00000

 Dipole moment (field-independent basis, Debye):
    X=              0.0000    Y=              0.0000    Z=              1.5164  Tot=              1.5164
 Quadrupole moment (field-independent basis, Debye-Ang):
   XX=            -22.2809   YY=            -22.2809   ZZ=            -30.2255
   XY=              0.0000   XZ=              0.0000   YZ=              0.0000

 \\#P ROCCSD(T)=(maxcyc=150, Full, SaveAmplitudes, ReadAmplitudes)/Gen
 \CCSD=-62.562857\CCSD(T)=-62.5956052\RMSD=3.912e-09\PG=C*V [C*(O1Sc1)]
 Normal termination of Gaussian 16 at Wed Mar  7 11:44:19 2018.
