 Gaussian 16, Revision A.03,
 Gaussian 16:  ES64L-G16RevA.03 25-Dec-2016

 ----------------------------------------------------------------------
 #P ROCCSD(T)=(maxcyc=150, FrzINGC)/Gen 5d 7f SCF=(maxcycles=300) Integ
 ral(NoXCTest, DKHSO) MaxDisk=500GB Pop=Regular IOp(5/15=2) Guess=Read
 ----------------------------------------------------------------------

 ---
 ScH
 ---
 Symbolic Z-matrix:
 Charge =  0 Multiplicity = 1

                         Standard orientation:
 ---------------------------------------------------------------------
 Center     Atomic      Atomic             Coordinates (Angstroms)
 Number     Number       Type             X           Y           Z
 ---------------------------------------------------------------------
      1         21           0        0.000000    0.000000    0.100000
      2          1           0        0.000000    0.000000   -2.100000
 ---------------------------------------------------------------------

 SCF Done:  E(ROHF) =  -763.811586875     A.U. after   12 cycles
 E2 =    -0.3758442845D+00 EUMP2 =    -0.76418743115957D+03
 CCSD(T)
 CCSD(T)= -0.76423678051D+03

 The electronic state is 1-SG.
 Alpha  occ. eigenvalues -- -166.96011 -19.41722 -15.84064 -15.84064 -15.83220
 Alpha  occ. eigenvalues --   -2.72153  -1.69488  -1.69488  -1.69261  -0.35855
 Alpha  occ. eigenvalues --   -0.24656
 Alpha virt. eigenvalues --    0.00845   0.00845   0.01122   0.02302   0.03599
 Alpha virt. eigenvalues --    0.03705   0.03705   0.03940   0.03940   0.04109
 Alpha virt. eigenvalues --    0.04157   0.04157   0.06734   0.06734   0.07878

 Mulliken charges and spin densities:
               1          2
     1  Sc   0.308682   0.000000
     2  H   -0.308682   0.000000
 Sum of Mulliken charges =   0.00000   0.00000

 Dipole moment (field-independent basis, Debye):
    X=              0.0000    Y=              0.0000    Z=              2.8816  Tot=              2.8816
 Quadrupole moment (field-independent basis, Debye-Ang):
   XX=            -23.3097   YY=            -23.3097   ZZ=            -30.7837
   XY=              0.0000   XZ=              0.0000   YZ=              0.0000

  ROCCSD(T)=(maxcyc=150, FrzINGC)/Gen 5d 7f SCF=(maxcycles=300) Integra
 PMP2-0=-764.1874312\MP4SDQ=-764.2173429\CCSD=-764.2188271\CCSD(T)=-764
 Normal termination of Gaussian 16 at Tue Feb 13 21:20:45 2018.
