 Gaussian 16, Revision A.03,
 Gaussian 16:  ES64L-G16RevA.03 25-Dec-2016

 ----------------------------------------------------------------------
 #P ROCCSD(T)=(MaxCyc=150, Window=(7,0))/Gen SCF=(maxcycle=400) Integra
 l(DKHSO, NoXCTest) Pop=Regular MaxDisk=500GB Guess=Read IOp(5/15=2)
 ----------------------------------------------------------------------

 ---
 ZnO
 ---
 Symbolic Z-matrix:
 Charge =  0 Multiplicity = 1

                         Standard orientation:
 ---------------------------------------------------------------------
 Center     Atomic      Atomic             Coordinates (Angstroms)
 Number     Number       Type             X           Y           Z
 ---------------------------------------------------------------------
      1         30           0        0.000000    0.000000    0.273684
      2          8           0        0.000000    0.000000   -1.026316
 ---------------------------------------------------------------------

 SCF Done:  E(ROHF) =  -1868.87994275     A.U. after   13 cycles
 E2 =    -0.1358033455D+01 EUMP2 =    -0.18702379762072D+04
 CCSD(T)
 CCSD(T)= -0.18701446680D+04

 The electronic state is 1-SG.
 Alpha  occ. eigenvalues -- -357.62854 -45.41326 -39.21360 -39.21290 -39.21290
 Alpha  occ. eigenvalues --  -20.51416  -5.89116  -3.98983  -3.95703  -3.95703
 Alpha  occ. eigenvalues --   -1.28016  -0.89042  -0.89042  -0.83608  -0.83608
 Alpha  occ. eigenvalues --   -0.79892  -0.43140  -0.43140  -0.39094
 Alpha virt. eigenvalues --   -0.02355   0.03126   0.03126   0.03594   0.04405
 Alpha virt. eigenvalues --    0.10458   0.10458   0.13668   0.18894   0.21362
 Alpha virt. eigenvalues --    0.22667   0.22667   0.25455   0.25455   0.30694

 Mulliken charges and spin densities:
               1          2
     1  Zn   1.314300   0.000000
     2  O   -1.314300   0.000000
 Sum of Mulliken charges =   0.00000   0.00000

 Dipole moment (field-independent basis, Debye):
    X=              0.0000    Y=              0.0000    Z=              5.6435  Tot=              5.6435
 Quadrupole moment (field-independent basis, Debye-Ang):
   XX=            -18.2241   YY=            -18.2241   ZZ=            -19.8369
   XY=              0.0000   XZ=              0.0000   YZ=              0.0000

 ROCCSD(T)=(MaxCyc=150, Window=(7,0))/Gen SCF=(maxcycle=400) Integral(D
 Normal termination of Gaussian 16 at Mon Apr 16 13:15:04 2018.
