 Gaussian 16, Revision A.03,
 Gaussian 16:  ES64L-G16RevA.03 25-Dec-2016

 ----------------------------------------------------------------------
 #P ROCCSD(T)=(maxcyc=150, Full, SaveAmplitudes, ReadAmplitudes)/Gen 5d
  7f SCF=(maxcycles=300) Integral(NoXCTest) MaxDisk=500GB Pop=Regular P
 seudo=Read Guess=Read
 ----------------------------------------------------------------------

 ---
 MnO
 ---
 Symbolic Z-matrix:
 Charge =  0 Multiplicity = 6

                         Standard orientation:
 ---------------------------------------------------------------------
 Center     Atomic      Atomic             Coordinates (Angstroms)
 Number     Number       Type             X           Y           Z
 ---------------------------------------------------------------------
      1         25           0        0.000000    0.000000    0.387879
      2          8           0        0.000000    0.000000   -1.212121
 ---------------------------------------------------------------------

 SCF Done:  E(ROHF) =  -119.129112610     A.U. after   25 cycles
 E2 =    -0.9473368489D+00 EUMP2 =    -0.12007644945866D+03
 CCSD(T)
 CCSD(T)= -0.12010106328D+03

 The electronic state is 6-SG.
 Alpha  occ. eigenvalues --   -4.22101  -2.77655  -2.77655  -2.76732  -1.13717
 Alpha  occ. eigenvalues --   -0.64572  -0.64572  -0.62700  -0.62700  -0.56744
 Alpha  occ. eigenvalues --   -0.35122  -0.35122  -0.33979
 Alpha virt. eigenvalues --   -0.03318   0.01536   0.01536   0.02022   0.03390
 Alpha virt. eigenvalues --    0.05821   0.05821   0.05981   0.05981   0.06298
 Alpha virt. eigenvalues --    0.07220   0.07220   0.11865   0.12872   0.17958

 Mulliken charges and spin densities:
               1          2
     1  Mn   1.199656   4.867425
     2  O   -1.199656   0.132575
 Sum of Mulliken charges =  -0.00000   5.00000

 Dipole moment (field-independent basis, Debye):
    X=              0.0000    Y=              0.0000    Z=              8.2744  Tot=              8.2744
 Quadrupole moment (field-independent basis, Debye-Ang):
   XX=            -18.8631   YY=            -18.8631   ZZ=            -23.0646
   XY=              0.0000   XZ=              0.0000   YZ=              0.0000

 \\#P ROCCSD(T)=(maxcyc=150, Full, SaveAmplitudes, ReadAmplitudes)/Gen
 9.1291126\PMP2-0=-120.0764495\CCSD=-120.0575167\CCSD(T)=-120.1010633\R
 Normal termination of Gaussian 16 at Tue Mar 13 15:58:54 2018.
