 Gaussian 16, Revision A.03,
 Gaussian 16:  ES64L-G16RevA.03 25-Dec-2016

 ----------------------------------------------------------------------
 #P ROCCSD(T)=(maxcyc=150, Full, SaveAmplitudes, ReadAmplitudes)/Gen 5d
  7f SCF=(maxcycles=300) Integral(NoXCTest) MaxDisk=500GB Pop=Regular P
 seudo=Read Guess=Read
 ----------------------------------------------------------------------

 ---
 ScO
 ---
 Symbolic Z-matrix:
 Charge =  0 Multiplicity = 2

                         Standard orientation:
 ---------------------------------------------------------------------
 Center     Atomic      Atomic             Coordinates (Angstroms)
 Number     Number       Type             X           Y           Z
 ---------------------------------------------------------------------
      1         21           0        0.000000    0.000000    0.551724
      2          8           0        0.000000    0.000000   -1.448276
 ---------------------------------------------------------------------

 SCF Done:  E(ROHF) =  -61.8976814752     A.U. after   17 cycles
 E2 =    -0.7251645412D+00 EUMP2 =    -0.62622846016425D+02
 CCSD(T)
 CCSD(T)= -0.62654153022D+02

 The electronic state is 2-SG.
 Alpha  occ. eigenvalues --   -2.73918  -1.70812  -1.70812  -1.70286  -1.09791
 Alpha  occ. eigenvalues --   -0.38945  -0.34741  -0.34741  -0.28357
 Alpha virt. eigenvalues --   -0.01341  -0.01341   0.00487   0.01616   0.02375
 Alpha virt. eigenvalues --    0.02375   0.02519   0.02519   0.03042   0.03301
 Alpha virt. eigenvalues --    0.03301   0.04045   0.04394   0.04394   0.08634

 Mulliken charges and spin densities:
               1          2
     1  Sc   1.191122   0.981377
     2  O   -1.191122   0.018623
 Sum of Mulliken charges =  -0.00000   1.00000

 Dipole moment (field-independent basis, Debye):
    X=              0.0000    Y=              0.0000    Z=              7.4495  Tot=              7.4495
 Quadrupole moment (field-independent basis, Debye-Ang):
   XX=            -22.0874   YY=            -22.0874   ZZ=            -34.8636
   XY=              0.0000   XZ=              0.0000   YZ=              0.0000

 \\#P ROCCSD(T)=(maxcyc=150, Full, SaveAmplitudes, ReadAmplitudes)/Gen
 6815\PMP2-0=-62.622846\CCSD=-62.6004736\CCSD(T)=-62.654153\RMSD=2.039e
 Normal termination of Gaussian 16 at Mon Mar  5 19:43:38 2018.
