 Gaussian 16, Revision A.03,
 Gaussian 16:  ES64L-G16RevA.03 25-Dec-2016

 ----------------------------------------------------------------------
 #P ROCCSD(T)=(maxcyc=150, Full, SaveAmplitudes, ReadAmplitudes)/Gen 5d
  7f SCF=(maxcycles=300, VShift=400) Integral(NoXCTest) MaxDisk=500GB P
 op=Full Pseudo=Read Guess=Read IOp(5/15=2)
 ----------------------------------------------------------------------

 ---
 MnO
 ---
 Symbolic Z-matrix:
 Charge =  0 Multiplicity = 6

                         Standard orientation:
 ---------------------------------------------------------------------
 Center     Atomic      Atomic             Coordinates (Angstroms)
 Number     Number       Type             X           Y           Z
 ---------------------------------------------------------------------
      1         25           0        0.000000    0.000000    0.436364
      2          8           0        0.000000    0.000000   -1.363636
 ---------------------------------------------------------------------

 SCF Done:  E(ROHF) =  -119.357225529     A.U. after   61 cycles
 E2 =    -0.8949996471D+00 EUMP2 =    -0.12025222517570D+03
 CCSD(T)
 CCSD(T)= -0.12028085774D+03

 The electronic state is 6-SG.
 Alpha  occ. eigenvalues --   -4.14247  -2.77221  -2.77221  -2.76733  -1.10536
 Alpha  occ. eigenvalues --   -0.66008  -0.66008  -0.65731  -0.65731  -0.62664
 Alpha  occ. eigenvalues --   -0.33745  -0.33745  -0.33076
 Alpha virt. eigenvalues --   -0.05183   0.01398   0.01398   0.01653   0.03824
 Alpha virt. eigenvalues --    0.06456   0.06456   0.08183   0.08351   0.08351
 Alpha virt. eigenvalues --    0.09474   0.09474   0.12870   0.14029   0.22734

 Mulliken charges and spin densities:
               1          2
     1  Mn   1.126134   4.928958
     2  O   -1.126134   0.071042
 Sum of Mulliken charges =  -0.00000   5.00000

 Dipole moment (field-independent basis, Debye):
    X=              0.0000    Y=              0.0000    Z=              9.4700  Tot=              9.4700
 Quadrupole moment (field-independent basis, Debye-Ang):
   XX=            -18.9454   YY=            -18.9454   ZZ=            -24.5465
   XY=              0.0000   XZ=              0.0000   YZ=              0.0000

 \\#P ROCCSD(T)=(maxcyc=150, Full, SaveAmplitudes, ReadAmplitudes)/Gen
 4SDQ=-120.2501091\CCSD=-120.2399261\CCSD(T)=-120.2808577\RMSD=9.925e-0
 Normal termination of Gaussian 16 at Wed Apr  4 02:27:28 2018.
