 Gaussian 16, Revision A.03,
 Gaussian 16:  ES64L-G16RevA.03 25-Dec-2016

 ----------------------------------------------------------------------
 #P ROCCSD(T)=(maxcyc=150, Full)/Gen 5d 7f SCF=(maxcycles=300, NoVarAcc
 , VShift=300) MaxDisk=100GB Pop=Regular Pseudo=Read Guess=Read IOp(5/1
 5=2)
 ----------------------------------------------------------------------

 --
 Cr
 --
 Symbolic Z-matrix:
 Charge =  0 Multiplicity = 7

                         Standard orientation:
 ---------------------------------------------------------------------
 Center     Atomic      Atomic             Coordinates (Angstroms)
 Number     Number       Type             X           Y           Z
 ---------------------------------------------------------------------
      1         24           0        0.000000    0.000000    0.000000
 ---------------------------------------------------------------------

 SCF Done:  E(ROHF) =  -85.7711518045     A.U. after   41 cycles
 E2 =    -0.5270872488D+00 EUMP2 =    -0.86298239053356D+02
 CCSD(T)
 CCSD(T)= -0.86309336466D+02

 The electronic state is 7-A1G.
 Alpha  occ. eigenvalues --   -3.57874  -2.29123  -2.29123  -2.29123  -0.36870
 Alpha  occ. eigenvalues --   -0.36870  -0.36870  -0.36870  -0.36870  -0.22720
 Alpha virt. eigenvalues --    0.01814   0.01814   0.01814   0.03163   0.06553
 Alpha virt. eigenvalues --    0.06553   0.06553   0.07939   0.07939   0.07939
 Alpha virt. eigenvalues --    0.07939   0.07939   0.21012   0.23258   0.23258

 Mulliken charges and spin densities:
               1          2
     1  Cr  -0.000000   6.000000
 Sum of Mulliken charges =  -0.00000   6.00000

 Dipole moment (field-independent basis, Debye):
    X=              0.0000    Y=              0.0000    Z=              0.0000  Tot=              0.0000
 Quadrupole moment (field-independent basis, Debye-Ang):
   XX=            -16.4726   YY=            -16.4726   ZZ=            -16.4726
   XY=              0.0000   XZ=             -0.0000   YZ=             -0.0000

 1\1\GINC-C455-044\SP\ROCCSD(T)-Full\Gen\Cr1(7)\AANNABE\05-Apr-2018\0\\
 #P ROCCSD(T)=(maxcyc=150, Full)/Gen 5d 7f SCF=(maxcycles=300, NoVarAcc
 , VShift=300) MaxDisk=100GB Pop=Regular Pseudo=Read Guess=Read IOp(5/1
 5=2)\\Cr\\0,7\Cr,0,0.,0.,0.\\Version=ES64L-G16RevA.03\State=7-A1G\HF=-
 85.7711518\MP2=-86.2982391\MP3=-86.2900838\PUHF=-85.7711518\PMP2-0=-86
 .2982391\MP4SDQ=-86.2942822\CCSD=-86.2931732\CCSD(T)=-86.3093365\RMSD=
 8.742e-09\PG=OH [O(Cr1)]\\@

 Normal termination of Gaussian 16 at Thu Apr  5 20:52:18 2018.
