 Gaussian 16, Revision A.03,
 Gaussian 16:  ES64L-G16RevA.03 25-Dec-2016

 ----------------------------------------------------------------------
 #P ROCCSD(T)=(maxcyc=150, Full, SaveAmplitudes, ReadAmplitudes)/Gen 5d
  7f SCF=(maxcycles=300, VShift=400) Integral(NoXCTest) MaxDisk=500GB P
 op=Full Pseudo=Read Guess=Read
 ----------------------------------------------------------------------

 ---
 ScO
 ---
 Symbolic Z-matrix:
 Charge =  0 Multiplicity = 2

                         Standard orientation:
 ---------------------------------------------------------------------
 Center     Atomic      Atomic             Coordinates (Angstroms)
 Number     Number       Type             X           Y           Z
 ---------------------------------------------------------------------
      1         21           0        0.000000    0.000000    0.331034
      2          8           0        0.000000    0.000000   -0.868966
 ---------------------------------------------------------------------

 SCF Done:  E(ROHF) =  -61.6318598889     A.U. after   28 cycles
 E2 =    -0.6512965886D+00 EUMP2 =    -0.62283156477521D+02
 CCSD(T)
 CCSD(T)= -0.62314204400D+02

 The electronic state is 2-SG.
 Alpha  occ. eigenvalues --   -2.60695  -1.82169  -1.52649  -1.52649  -1.04649
 Alpha  occ. eigenvalues --   -0.63838  -0.63838  -0.47751  -0.17847
 Alpha virt. eigenvalues --    0.01020   0.01020   0.01778   0.02784   0.03763
 Alpha virt. eigenvalues --    0.03763   0.03798   0.03798   0.03862   0.04910
 Alpha virt. eigenvalues --    0.04910   0.07182   0.11102   0.11102   0.11191

 Mulliken charges and spin densities:
               1          2
     1  Sc   1.073289   1.028207
     2  O   -1.073289  -0.028207
 Sum of Mulliken charges =  -0.00000   1.00000

 Dipole moment (field-independent basis, Debye):
    X=              0.0000    Y=             -0.0000    Z=             -1.2407  Tot=              1.2407
 Quadrupole moment (field-independent basis, Debye-Ang):
   XX=            -23.5383   YY=            -23.5383   ZZ=            -29.1193
   XY=              0.0000   XZ=              0.0000   YZ=              0.0000

 \\#P ROCCSD(T)=(maxcyc=150, Full, SaveAmplitudes, ReadAmplitudes)/Gen
 UHF=-61.6318599\PMP2-0=-62.2831565\CCSD=-62.2870409\CCSD(T)=-62.314204
 Normal termination of Gaussian 16 at Tue Apr 17 20:20:15 2018.
