 Gaussian 16, Revision A.03,
 Gaussian 16:  ES64L-G16RevA.03 25-Dec-2016

 ----------------------------------------------------------------------
 #P ROCCSD(T)=(maxcyc=150, Full)/Gen 5d 7f SCF=(maxcycles=300) Integral
 (NoXCTest) MaxDisk=500GB Pop=Regular Pseudo=Read Guess=Read
 ----------------------------------------------------------------------

 ---
 MnH
 ---
 Symbolic Z-matrix:
 Charge =  0 Multiplicity = 7

                         Standard orientation:
 ---------------------------------------------------------------------
 Center     Atomic      Atomic             Coordinates (Angstroms)
 Number     Number       Type             X           Y           Z
 ---------------------------------------------------------------------
      1         25           0        0.000000    0.000000    0.080769
      2          1           0        0.000000    0.000000   -2.019231
 ---------------------------------------------------------------------

 SCF Done:  E(ROHF) =  -104.050827919     A.U. after   20 cycles
 E2 =    -0.5896184172D+00 EUMP2 =    -0.10464044633627D+03
 CCSD(T)
 CCSD(T)= -0.10466499159D+03

 The electronic state is 7-SG.
 Alpha  occ. eigenvalues --   -4.18197  -2.82944  -2.82944  -2.82662  -0.66286
 Alpha  occ. eigenvalues --   -0.66286  -0.65627  -0.65627  -0.65520  -0.38029
 Alpha  occ. eigenvalues --   -0.27268
 Alpha virt. eigenvalues --    0.00842   0.00842   0.02102   0.02923   0.04754
 Alpha virt. eigenvalues --    0.04754   0.05538   0.05732   0.05732   0.06195
 Alpha virt. eigenvalues --    0.06195   0.09780   0.11747   0.13450   0.17931

 Mulliken charges and spin densities:
               1          2
     1  Mn   0.390452   5.951236
     2  H   -0.390452   0.048764
 Sum of Mulliken charges =  -0.00000   6.00000

 Dipole moment (field-independent basis, Debye):
    X=              0.0000    Y=              0.0000    Z=              2.8043  Tot=              2.8043
 Quadrupole moment (field-independent basis, Debye-Ang):
   XX=            -16.5573   YY=            -16.5573   ZZ=            -28.7455
   XY=              0.0000   XZ=              0.0000   YZ=              0.0000

 \\#P ROCCSD(T)=(maxcyc=150, Full)/Gen 5d 7f SCF=(maxcycles=300) Integr
 0=-104.6404463\MP4SDQ=-104.6470144\CCSD=-104.6487353\CCSD(T)=-104.6649
 Normal termination of Gaussian 16 at Tue Feb 13 16:16:27 2018.
