 Gaussian 16, Revision A.03,
 Gaussian 16:  ES64L-G16RevA.03 25-Dec-2016

 ----------------------------------------------------------------------
 #P ROCCSD(T)=(maxcyc=150, Full)/Gen 5d 7f SCF=(maxcycles=300, NoVarAcc
 , VShift=200) Integral(NoXCTest, DKHSO) MaxDisk=100GB Pop=Regular Gues
 s=Read
 ----------------------------------------------------------------------

 --
 Ti
 --
 Symbolic Z-matrix:
 Charge =  0 Multiplicity = 3

                         Standard orientation:
 ---------------------------------------------------------------------
 Center     Atomic      Atomic             Coordinates (Angstroms)
 Number     Number       Type             X           Y           Z
 ---------------------------------------------------------------------
      1         22           0        0.000000    0.000000    0.000000
 ---------------------------------------------------------------------

 SCF Done:  E(ROHF) =  -852.750877531     A.U. after    2 cycles
 E2 =    -0.8171917691D+00 EUMP2 =    -0.85356806929990D+03
 CCSD(T)
 CCSD(T)= -0.85359394745D+03

 Unable to determine electronic state:  an orbital has unidentified symmetry.
 Alpha  occ. eigenvalues -- -184.40163 -21.66528 -17.83253 -17.83253 -17.83253
 Alpha  occ. eigenvalues --   -2.96738  -1.87509  -1.87509  -1.87509  -0.43419
 Alpha  occ. eigenvalues --   -0.43419  -0.23031
 Alpha virt. eigenvalues --    0.01363   0.01363   0.01363   0.02030   0.03480
 Alpha virt. eigenvalues --    0.03480   0.03480   0.03511   0.03511   0.04672
 Alpha virt. eigenvalues --    0.04672   0.04672   0.09497   0.09497   0.09497

 Mulliken charges and spin densities:
               1          2
     1  Ti   0.000000   2.000000
 Sum of Mulliken charges =   0.00000   2.00000

 Dipole moment (field-independent basis, Debye):
    X=              0.0000    Y=              0.0000    Z=             -0.0000  Tot=              0.0000
 Quadrupole moment (field-independent basis, Debye-Ang):
   XX=            -22.3103   YY=            -22.3103   ZZ=            -22.3103
   XY=             -0.0000   XZ=             -0.0000   YZ=             -0.0000

 1\1\GINC-C506-013\SP\ROCCSD(T)-Full\Gen\Ti1(3)\AANNABE\12-Mar-2018\0\\
 #P ROCCSD(T)=(maxcyc=150, Full)/Gen 5d 7f SCF=(maxcycles=300, NoVarAcc
 , VShift=200) Integral(NoXCTest, DKHSO) MaxDisk=100GB Pop=Regular Gues
 s=Read\\Ti\\0,3\Ti,0,0.,0.,0.\\Version=ES64L-G16RevA.03\HF=-852.750877
 5\MP2=-853.5680693\MP3=-853.5763906\PUHF=-852.7508775\PMP2-0=-853.5680
 693\MP4SDQ=-853.5764244\CCSD=-853.5766962\CCSD(T)=-853.5939474\RMSD=4.
 366e-09\PG=OH [O(Ti1)]\\@

 Normal termination of Gaussian 16 at Mon Mar 12 18:28:08 2018.
