 Gaussian 16, Revision A.03,
 Gaussian 16:  ES64L-G16RevA.03 25-Dec-2016

 ----------------------------------------------------------------------
 #P ROHF/Gen 5d 7f SCF=(maxcycles=300, NoVarAcc, VShift=300) Integral(N
 oXCTest, DKHSO) MaxDisk=100GB Pop=Regular
 ----------------------------------------------------------------------

 --
 Ti
 --
 Symbolic Z-matrix:
 Charge =  0 Multiplicity = 3

                         Standard orientation:
 ---------------------------------------------------------------------
 Center     Atomic      Atomic             Coordinates (Angstroms)
 Number     Number       Type             X           Y           Z
 ---------------------------------------------------------------------
      1         22           0        0.000000    0.000000    0.000000
 ---------------------------------------------------------------------

 SCF Done:  E(ROHF) =  -852.750877531     A.U. after   47 cycles

 Unable to determine electronic state:  an orbital has unidentified symmetry.
 Alpha  occ. eigenvalues -- -184.40142 -21.64374 -17.81042 -17.81042 -17.81042
 Alpha  occ. eigenvalues --   -2.88377  -1.77096  -1.77096  -1.77096  -0.21970
 Alpha  occ. eigenvalues --   -0.05590  -0.05590
 Alpha virt. eigenvalues --    0.01420   0.01420   0.01420   0.02049   0.03482
 Alpha virt. eigenvalues --    0.03482   0.03482   0.03515   0.03515   0.04790
 Alpha virt. eigenvalues --    0.04790   0.04790   0.09666   0.09666   0.09666

 Mulliken charges and spin densities:
               1          2
     1  Ti  -0.000000   2.000000
 Sum of Mulliken charges =  -0.00000   2.00000

 Dipole moment (field-independent basis, Debye):
    X=              0.0000    Y=              0.0000    Z=             -0.0000  Tot=              0.0000
 Quadrupole moment (field-independent basis, Debye-Ang):
   XX=            -22.3103   YY=            -22.3103   ZZ=            -22.3103
   XY=             -0.0000   XZ=             -0.0000   YZ=             -0.0000

 Normal termination of Gaussian 16 at Mon Mar 12 16:47:30 2018.
