 Gaussian 16, Revision A.03,
 Gaussian 16:  ES64L-G16RevA.03 25-Dec-2016

 ----------------------------------------------------------------------
 #P ROCCSD(T)=(MaxCyc=150, Full)/Gen SCF=(maxcycle=400) Pseudo=Read Int
 egral(NoXCTest) Pop=Regular MaxDisk=500GB Guess=Read IOp(5/15=2)
 ----------------------------------------------------------------------

 ---
 CuO
 ---
 Symbolic Z-matrix:
 Charge =  0 Multiplicity = 2

                         Standard orientation:
 ---------------------------------------------------------------------
 Center     Atomic      Atomic             Coordinates (Angstroms)
 Number     Number       Type             X           Y           Z
 ---------------------------------------------------------------------
      1         29           0        0.000000    0.000000    0.281081
      2          8           0        0.000000    0.000000   -1.018919
 ---------------------------------------------------------------------

 SCF Done:  E(ROHF) =  -212.019412682     A.U. after   19 cycles
 E2 =    -0.1409573204D+01 EUMP2 =    -0.21342898588653D+03
 CCSD(T)
 CCSD(T)= -0.21334684306D+03

 Unable to determine electronic state:  an orbital has unidentified symmetry.
 Alpha  occ. eigenvalues --   -5.40821  -3.70306  -3.66233  -3.64398  -1.34467
 Alpha  occ. eigenvalues --   -0.76948  -0.73522  -0.67713  -0.61775  -0.61738
 Alpha  occ. eigenvalues --   -0.49529  -0.44447  -0.35989
 Alpha virt. eigenvalues --    0.00190   0.02745   0.02880   0.03495   0.05090
 Alpha virt. eigenvalues --    0.09374   0.09801   0.12128   0.13805   0.13815
 Alpha virt. eigenvalues --    0.13919   0.14222   0.14264   0.19034   0.21960

 Mulliken charges and spin densities:
               1          2
     1  Cu   0.653687   0.185556
     2  O   -0.653687   0.814444
 Sum of Mulliken charges =  -0.00000   1.00000

 Dipole moment (field-independent basis, Debye):
    X=              0.0000    Y=              0.0000    Z=              3.8323  Tot=              3.8323
 Quadrupole moment (field-independent basis, Debye-Ang):
   XX=            -17.1156   YY=            -18.5282   ZZ=            -18.1661
   XY=              0.0000   XZ=              0.0000   YZ=              0.0000

 \\#P ROCCSD(T)=(MaxCyc=150, Full)/Gen SCF=(maxcycle=400) Pseudo=Read I
 .4289859\MP4SDQ=-213.3703894\CCSD=-213.2917168\CCSD(T)=-213.3468431\RM
 Normal termination of Gaussian 16 at Mon Mar 26 13:00:36 2018.
