 Gaussian 16, Revision A.03,
 Gaussian 16:  ES64L-G16RevA.03 25-Dec-2016

 ----------------------------------------------------------------------
 #P ROCCSD(T)=(MaxCyc=150, Full)/Gen SCF=(maxcycle=400) Pseudo=Read Int
 egral(NoXCTest) Pop=Regular MaxDisk=500GB Guess=Read IOp(5/15=2)
 ----------------------------------------------------------------------

 ---
 CuO
 ---
 Symbolic Z-matrix:
 Charge =  0 Multiplicity = 2

                         Standard orientation:
 ---------------------------------------------------------------------
 Center     Atomic      Atomic             Coordinates (Angstroms)
 Number     Number       Type             X           Y           Z
 ---------------------------------------------------------------------
      1         29           0        0.000000    0.000000    0.281081
      2          8           0        0.000000    0.000000   -1.018919
 ---------------------------------------------------------------------

 SCF Done:  E(ROHF) =  -212.003478460     A.U. after   31 cycles
 E2 =    -0.1345691147D+01 EUMP2 =    -0.21334916960652D+03
 CCSD(T)
 CCSD(T)= -0.21326948373D+03

 Unable to determine electronic state:  an orbital has unidentified symmetry.
 Alpha  occ. eigenvalues --   -5.41101  -3.70523  -3.66439  -3.64592  -1.34521
 Alpha  occ. eigenvalues --   -0.76942  -0.73513  -0.67727  -0.61765  -0.61728
 Alpha  occ. eigenvalues --   -0.49521  -0.44443  -0.36025
 Alpha virt. eigenvalues --    0.00218   0.03104   0.03274   0.03855   0.05446
 Alpha virt. eigenvalues --    0.10832   0.11366   0.13556   0.19137   0.20042
 Alpha virt. eigenvalues --    0.20058   0.21044   0.21742   0.21830   0.25906

 Mulliken charges and spin densities:
               1          2
     1  Cu   0.896500   0.164564
     2  O   -0.896500   0.835436
 Sum of Mulliken charges =  -0.00000   1.00000

 Dipole moment (field-independent basis, Debye):
    X=              0.0000    Y=              0.0000    Z=              3.8453  Tot=              3.8453
 Quadrupole moment (field-independent basis, Debye-Ang):
   XX=            -17.1246   YY=            -18.5517   ZZ=            -18.1569
   XY=              0.0000   XZ=              0.0000   YZ=              0.0000

 \\#P ROCCSD(T)=(MaxCyc=150, Full)/Gen SCF=(maxcycle=400) Pseudo=Read I
 .3491696\MP4SDQ=-213.2968501\CCSD=-213.2170187\CCSD(T)=-213.2694837\RM
 Normal termination of Gaussian 16 at Mon Mar 26 10:31:23 2018.
