 Gaussian 16, Revision A.03,
 Gaussian 16:  ES64L-G16RevA.03 25-Dec-2016

 ----------------------------------------------------------------------
 #P ROCCSD(T)=(maxcyc=150, Full)/Gen 5d 7f SCF=(maxcycles=300) Integral
 (NoXCTest, DKHSO) MaxDisk=500GB Pop=Regular IOp(5/15=2) Guess=Read
 ----------------------------------------------------------------------

 ---
 CrH
 ---
 Symbolic Z-matrix:
 Charge =  0 Multiplicity = 6

                         Standard orientation:
 ---------------------------------------------------------------------
 Center     Atomic      Atomic             Coordinates (Angstroms)
 Number     Number       Type             X           Y           Z
 ---------------------------------------------------------------------
      1         24           0        0.000000    0.000000    0.048000
      2          1           0        0.000000    0.000000   -1.152000
 ---------------------------------------------------------------------

 SCF Done:  E(ROHF) =  -1050.10632631     A.U. after   41 cycles
 E2 =    -0.1006820030D+01 EUMP2 =    -0.10511131463356D+04
 CCSD(T)
 CCSD(T)= -0.10511221953D+04

 The electronic state is 6-SG.
 Alpha  occ. eigenvalues -- -222.10806 -26.69446 -22.32904 -22.32904 -22.32802
 Alpha  occ. eigenvalues --   -3.58203  -2.33371  -2.33371  -2.32609  -0.46318
 Alpha  occ. eigenvalues --   -0.45278  -0.45278  -0.42562  -0.42562  -0.25130
 Alpha virt. eigenvalues --    0.01683   0.01691   0.01691   0.02263   0.04680
 Alpha virt. eigenvalues --    0.05485   0.05485   0.05508   0.05508   0.05831
 Alpha virt. eigenvalues --    0.05831   0.06097   0.09419   0.13267   0.16897

 Mulliken charges and spin densities:
               1          2
     1  Cr   0.334944   4.981742
     2  H   -0.334944   0.018258
 Sum of Mulliken charges =  -0.00000   5.00000

 Dipole moment (field-independent basis, Debye):
    X=             -0.0000    Y=              0.0000    Z=              2.0225  Tot=              2.0225
 Quadrupole moment (field-independent basis, Debye-Ang):
   XX=            -16.9536   YY=            -16.9536   ZZ=            -19.0482
   XY=             -0.0000   XZ=             -0.0000   YZ=              0.0000

 \\#P ROCCSD(T)=(maxcyc=150, Full)/Gen 5d 7f SCF=(maxcycles=300) Integr
 Normal termination of Gaussian 16 at Tue Feb 13 19:47:52 2018.
