 Gaussian 16, Revision A.03,
 Gaussian 16:  ES64L-G16RevA.03 25-Dec-2016

 ----------------------------------------------------------------------
 #P ROCCSD(T)=(maxcyc=150, Full, SaveAmplitudes, ReadAmplitudes)/Gen 5d
  7f SCF=(maxcycles=300) Integral(NoXCTest) MaxDisk=500GB Pop=Regular P
 seudo=Read Guess=Read
 ----------------------------------------------------------------------

 ---
 CrO
 ---
 Symbolic Z-matrix:
 Charge =  0 Multiplicity = 5

                         Standard orientation:
 ---------------------------------------------------------------------
 Center     Atomic      Atomic             Coordinates (Angstroms)
 Number     Number       Type             X           Y           Z
 ---------------------------------------------------------------------
      1         24           0        0.000000    0.000000    0.350000
      2          8           0        0.000000    0.000000   -1.050000
 ---------------------------------------------------------------------

 SCF Done:  E(ROHF) =  -101.969476092     A.U. after   24 cycles
 E2 =    -0.9216291365D+00 EUMP2 =    -0.10289110522843D+03
 CCSD(T)
 CCSD(T)= -0.10290605011D+03

 Unable to determine electronic state:  an orbital has unidentified symmetry.
 Alpha  occ. eigenvalues --   -3.76174  -2.47115  -2.42867  -2.42340  -1.23461
 Alpha  occ. eigenvalues --   -0.65359  -0.56942  -0.54032  -0.53141  -0.52103
 Alpha  occ. eigenvalues --   -0.38691  -0.28705
 Alpha virt. eigenvalues --    0.01067   0.01564   0.02024   0.02749   0.04538
 Alpha virt. eigenvalues --    0.04923   0.05377   0.05379   0.05525   0.05733
 Alpha virt. eigenvalues --    0.06935   0.06942   0.10480   0.13674   0.14194

 Mulliken charges and spin densities:
               1          2
     1  Cr   0.941950   3.868984
     2  O   -0.941950   0.131016
 Sum of Mulliken charges =  -0.00000   4.00000

 Dipole moment (field-independent basis, Debye):
    X=              0.0000    Y=              0.0000    Z=              3.1962  Tot=              3.1962
 Quadrupole moment (field-independent basis, Debye-Ang):
   XX=            -20.8849   YY=            -19.6309   ZZ=            -24.0052
   XY=              0.0000   XZ=              0.0000   YZ=              0.0000

 \\#P ROCCSD(T)=(maxcyc=150, Full, SaveAmplitudes, ReadAmplitudes)/Gen
 MP2-0=-102.8911052\CCSD=-102.8591217\CCSD(T)=-102.9060501\RMSD=3.003e-
 Normal termination of Gaussian 16 at Mon Mar 12 16:09:39 2018.
