 Gaussian 16, Revision A.03,
 Gaussian 16:  ES64L-G16RevA.03 25-Dec-2016

 ----------------------------------------------------------------------
 #P ROCCSD(T)=(MaxCyc=150, Full)/Gen SCF=(maxcycle=400) Pseudo=Read Int
 egral(NoXCTest) Pop=Regular MaxDisk=500GB
 ----------------------------------------------------------------------

 ---
 FeO
 ---
 Symbolic Z-matrix:
 Charge =  0 Multiplicity = 5

                         Standard orientation:
 ---------------------------------------------------------------------
 Center     Atomic      Atomic             Coordinates (Angstroms)
 Number     Number       Type             X           Y           Z
 ---------------------------------------------------------------------
      1         26           0        0.000000    0.000000    0.400000
      2          8           0        0.000000    0.000000   -1.300000
 ---------------------------------------------------------------------

 SCF Done:  E(ROHF) =  -138.848537875     A.U. after   37 cycles
 E2 =    -0.9848613027D+00 EUMP2 =    -0.13983339917805D+03
 CCSD(T)
 CCSD(T)= -0.13986055904D+03

 Unable to determine electronic state:  partially filled degenerate orbitals.
 Alpha  occ. eigenvalues --   -4.50784  -3.03157  -2.95995  -2.95995  -1.12892
 Alpha  occ. eigenvalues --   -0.70216  -0.70216  -0.67695  -0.66751  -0.61837
 Alpha  occ. eigenvalues --   -0.35098  -0.34488  -0.34488
 Alpha virt. eigenvalues --   -0.05301   0.01705   0.01705   0.01813   0.04020
 Alpha virt. eigenvalues --    0.07034   0.07034   0.08764   0.09495   0.09525
 Alpha virt. eigenvalues --    0.10623   0.10623   0.13784   0.14798   0.24600

 Mulliken charges and spin densities:
               1          2
     1  Fe   1.136656   3.889271
     2  O   -1.136656   0.110729
 Sum of Mulliken charges =  -0.00000   4.00000

 Dipole moment (field-independent basis, Debye):
    X=              0.0000    Y=              0.0000    Z=              9.1379  Tot=              9.1379
 Quadrupole moment (field-independent basis, Debye-Ang):
   XX=            -18.4680   YY=            -18.4680   ZZ=            -23.0803
   XY=              0.0000   XZ=              0.0000   YZ=              0.0000

 \\#P ROCCSD(T)=(MaxCyc=150, Full)/Gen SCF=(maxcycle=400) Pseudo=Read I
 53118\CCSD=-139.8128518\CCSD(T)=-139.860559\RMSD=7.650e-09\PG=C*V [C*(
 Normal termination of Gaussian 16 at Sun Mar 25 07:24:15 2018.
