 Gaussian 16, Revision A.03,
 Gaussian 16:  ES64L-G16RevA.03 25-Dec-2016

 ----------------------------------------------------------------------
 #P ROCCSD(T)=(MaxCyc=150, Full)/Gen SCF=(maxcycle=400) Pseudo=Read Int
 egral(NoXCTest) Pop=Regular MaxDisk=500GB
 ----------------------------------------------------------------------

 ---
 FeO
 ---
 Symbolic Z-matrix:
 Charge =  0 Multiplicity = 5

                         Standard orientation:
 ---------------------------------------------------------------------
 Center     Atomic      Atomic             Coordinates (Angstroms)
 Number     Number       Type             X           Y           Z
 ---------------------------------------------------------------------
      1         26           0        0.000000    0.000000    0.400000
      2          8           0        0.000000    0.000000   -1.300000
 ---------------------------------------------------------------------

 SCF Done:  E(ROHF) =  -138.851900050     A.U. after   35 cycles
 E2 =    -0.1031812334D+01 EUMP2 =    -0.13988371238404D+03
 CCSD(T)
 CCSD(T)= -0.13990840989D+03

 Unable to determine electronic state:  partially filled degenerate orbitals.
 Alpha  occ. eigenvalues --   -4.50774  -3.03135  -2.95977  -2.95977  -1.12834
 Alpha  occ. eigenvalues --   -0.70210  -0.70210  -0.67684  -0.66744  -0.61831
 Alpha  occ. eigenvalues --   -0.35083  -0.34492  -0.34492
 Alpha virt. eigenvalues --   -0.05294   0.01427   0.01427   0.01554   0.03564
 Alpha virt. eigenvalues --    0.06110   0.06110   0.06404   0.06415   0.06666
 Alpha virt. eigenvalues --    0.07746   0.07746   0.11652   0.13495   0.19078

 Mulliken charges and spin densities:
               1          2
     1  Fe   1.129792   3.900827
     2  O   -1.129792   0.099173
 Sum of Mulliken charges =  -0.00000   4.00000

 Dipole moment (field-independent basis, Debye):
    X=              0.0000    Y=              0.0000    Z=              9.1286  Tot=              9.1286
 Quadrupole moment (field-independent basis, Debye-Ang):
   XX=            -18.4657   YY=            -18.4657   ZZ=            -23.0582
   XY=              0.0000   XZ=              0.0000   YZ=              0.0000

 \\#P ROCCSD(T)=(MaxCyc=150, Full)/Gen SCF=(maxcycle=400) Pseudo=Read I
 1743\CCSD=-139.8584297\CCSD(T)=-139.9084099\RMSD=7.348e-09\PG=C*V [C*(
 Normal termination of Gaussian 16 at Sun Mar 25 09:34:26 2018.
