 Gaussian 16, Revision A.03,
 Gaussian 16:  ES64L-G16RevA.03 25-Dec-2016

 ----------------------------------------------------------------------
 #P ROCCSD(T)=(maxcyc=150, Full, SaveAmplitudes, ReadAmplitudes)/Gen 5d
  7f SCF=(maxcycles=300, VShift=400) Integral(NoXCTest) MaxDisk=500GB P
 op=Full Pseudo=Read Guess=Read
 ----------------------------------------------------------------------

 ---
 ScO
 ---
 Symbolic Z-matrix:
 Charge =  0 Multiplicity = 2

                         Standard orientation:
 ---------------------------------------------------------------------
 Center     Atomic      Atomic             Coordinates (Angstroms)
 Number     Number       Type             X           Y           Z
 ---------------------------------------------------------------------
      1         21           0        0.000000    0.000000    0.413793
      2          8           0        0.000000    0.000000   -1.086207
 ---------------------------------------------------------------------

 SCF Done:  E(ROHF) =  -61.9260477554     A.U. after   49 cycles
 E2 =    -0.6759123084D+00 EUMP2 =    -0.62601960063812D+02
 CCSD(T)
 CCSD(T)= -0.62629400838D+02

 The electronic state is 2-SG.
 Alpha  occ. eigenvalues --   -2.59770  -1.68860  -1.58487  -1.58487  -1.11662
 Alpha  occ. eigenvalues --   -0.47989  -0.47989  -0.45043  -0.22508
 Alpha virt. eigenvalues --    0.00598   0.00598   0.01969   0.02278   0.03703
 Alpha virt. eigenvalues --    0.03703   0.03842   0.03842   0.04114   0.04323
 Alpha virt. eigenvalues --    0.04323   0.06609   0.09768   0.09768   0.10914

 Mulliken charges and spin densities:
               1          2
     1  Sc   1.285745   0.978189
     2  O   -1.285745   0.021811
 Sum of Mulliken charges =  -0.00000   1.00000

 Dipole moment (field-independent basis, Debye):
    X=              0.0000    Y=             -0.0000    Z=              2.7136  Tot=              2.7136
 Quadrupole moment (field-independent basis, Debye-Ang):
   XX=            -22.0359   YY=            -22.0359   ZZ=            -31.1541
   XY=             -0.0000   XZ=              0.0000   YZ=              0.0000

 \\#P ROCCSD(T)=(maxcyc=150, Full, SaveAmplitudes, ReadAmplitudes)/Gen
 UHF=-61.9260478\PMP2-0=-62.6019601\CCSD=-62.5943528\CCSD(T)=-62.629400
 Normal termination of Gaussian 16 at Thu Apr 19 07:46:20 2018.
