 Gaussian 16, Revision A.03,
 Gaussian 16:  ES64L-G16RevA.03 25-Dec-2016

 ----------------------------------------------------------------------
 #P ROCCSD(T)=(MaxCyc=150, Full)/Gen SCF=(maxcycle=400) Pseudo=Read Int
 egral(NoXCTest) Pop=Regular MaxDisk=500GB Guess=Read IOp(5/15=2)
 ----------------------------------------------------------------------

 ---
 NiO
 ---
 Symbolic Z-matrix:
 Charge =  0 Multiplicity = 3

                         Standard orientation:
 ---------------------------------------------------------------------
 Center     Atomic      Atomic             Coordinates (Angstroms)
 Number     Number       Type             X           Y           Z
 ---------------------------------------------------------------------
      1         28           0        0.000000    0.000000    0.355556
      2          8           0        0.000000    0.000000   -1.244444
 ---------------------------------------------------------------------

 SCF Done:  E(ROHF) =  -184.924708777     A.U. after   22 cycles
 E2 =    -0.1179561928D+01 EUMP2 =    -0.18610427070475D+03
 CCSD(T)
 CCSD(T)= -0.18613184214D+03

 The electronic state is 3-SG.
 Alpha  occ. eigenvalues --   -5.03546  -3.48691  -3.40074  -3.40074  -1.15357
 Alpha  occ. eigenvalues --   -0.79639  -0.79639  -0.72751  -0.70274  -0.70274
 Alpha  occ. eigenvalues --   -0.38087  -0.38087  -0.37648
 Alpha virt. eigenvalues --   -0.05347   0.02208   0.02242   0.02242   0.04315
 Alpha virt. eigenvalues --    0.08084   0.08084   0.10576   0.12171   0.12171
 Alpha virt. eigenvalues --    0.13239   0.13239   0.15525   0.16095   0.26408

 Mulliken charges and spin densities:
               1          2
     1  Ni   1.125704   1.890768
     2  O   -1.125704   0.109232
 Sum of Mulliken charges =  -0.00000   2.00000

 Dipole moment (field-independent basis, Debye):
    X=              0.0000    Y=              0.0000    Z=              8.0776  Tot=              8.0776
 Quadrupole moment (field-independent basis, Debye-Ang):
   XX=            -18.2819   YY=            -18.2819   ZZ=            -20.9514
   XY=              0.0000   XZ=              0.0000   YZ=              0.0000

 \\#P ROCCSD(T)=(MaxCyc=150, Full)/Gen SCF=(maxcycle=400) Pseudo=Read I
 PMP2-0=-186.1042707\MP4SDQ=-186.0820379\CCSD=-186.0706131\CCSD(T)=-186
 Normal termination of Gaussian 16 at Mon Mar 26 16:59:31 2018.
