 Gaussian 16, Revision A.03,
 Gaussian 16:  ES64L-G16RevA.03 25-Dec-2016

 ----------------------------------------------------------------------
 #P ROCCSD(T)=(MaxCyc=150, Full)/Gen SCF=(maxcycle=400) Pseudo=Read Int
 egral(NoXCTest) Pop=Regular MaxDisk=500GB Guess=Read IOp(5/15=2)
 ----------------------------------------------------------------------

 ---
 NiO
 ---
 Symbolic Z-matrix:
 Charge =  0 Multiplicity = 3

                         Standard orientation:
 ---------------------------------------------------------------------
 Center     Atomic      Atomic             Coordinates (Angstroms)
 Number     Number       Type             X           Y           Z
 ---------------------------------------------------------------------
      1         28           0        0.000000    0.000000    0.355556
      2          8           0        0.000000    0.000000   -1.244444
 ---------------------------------------------------------------------

 SCF Done:  E(ROHF) =  -184.928333992     A.U. after   18 cycles
 E2 =    -0.1236980735D+01 EUMP2 =    -0.18616531472745D+03
 CCSD(T)
 CCSD(T)= -0.18619060849D+03

 The electronic state is 3-SG.
 Alpha  occ. eigenvalues --   -5.03513  -3.48663  -3.40051  -3.40051  -1.15314
 Alpha  occ. eigenvalues --   -0.79642  -0.79642  -0.72751  -0.70280  -0.70280
 Alpha  occ. eigenvalues --   -0.38090  -0.38090  -0.37642
 Alpha virt. eigenvalues --   -0.05337   0.01867   0.01867   0.01927   0.03890
 Alpha virt. eigenvalues --    0.06895   0.06895   0.07569   0.08015   0.08015
 Alpha virt. eigenvalues --    0.09193   0.09193   0.12867   0.14909   0.21850

 Mulliken charges and spin densities:
               1          2
     1  Ni   1.011813   1.892570
     2  O   -1.011813   0.107430
 Sum of Mulliken charges =  -0.00000   2.00000

 Dipole moment (field-independent basis, Debye):
    X=              0.0000    Y=              0.0000    Z=              8.0640  Tot=              8.0640
 Quadrupole moment (field-independent basis, Debye-Ang):
   XX=            -18.2732   YY=            -18.2732   ZZ=            -20.9352
   XY=              0.0000   XZ=              0.0000   YZ=              0.0000

 \\#P ROCCSD(T)=(MaxCyc=150, Full)/Gen SCF=(maxcycle=400) Pseudo=Read I
 P2-0=-186.1653147\MP4SDQ=-186.137308\CCSD=-186.1268027\CCSD(T)=-186.19
 Normal termination of Gaussian 16 at Mon Mar 26 19:36:38 2018.
