 Gaussian 16, Revision A.03,
 Gaussian 16:  ES64L-G16RevA.03 25-Dec-2016

 ----------------------------------------------------------------------
 #P ROCCSD(T)=(MaxCyc=150, Full)/Gen SCF=(maxcycle=400, vshift=200) Pse
 udo=Read Integral(NoXCTest) Pop=Regular MaxDisk=500GB Guess=Read IOp(5
 /15=2)
 ----------------------------------------------------------------------

 ---
 ZnH
 ---
 Symbolic Z-matrix:
 Charge =  0 Multiplicity = 2

                         Standard orientation:
 ---------------------------------------------------------------------
 Center     Atomic      Atomic             Coordinates (Angstroms)
 Number     Number       Type             X           Y           Z
 ---------------------------------------------------------------------
      1         30           0        0.000000    0.000000    0.045161
      2          1           0        0.000000    0.000000   -1.354839
 ---------------------------------------------------------------------

 SCF Done:  E(ROHF) =  -226.479299339     A.U. after   18 cycles
 E2 =    -0.1040774622D+01 EUMP2 =    -0.22752007396065D+03
 CCSD(T)
 CCSD(T)= -0.22746686160D+03

 The electronic state is 2-SG.
 Alpha  occ. eigenvalues --   -5.90005  -3.97134  -3.97060  -3.97060  -0.80685
 Alpha  occ. eigenvalues --   -0.79948  -0.79948  -0.79581  -0.79581  -0.47656
 Alpha  occ. eigenvalues --   -0.27216
 Alpha virt. eigenvalues --    0.02135   0.02135   0.02764   0.04038   0.07760
 Alpha virt. eigenvalues --    0.07760   0.08899   0.15851   0.18914   0.24373
 Alpha virt. eigenvalues --    0.24373   0.25079   0.25079   0.26078   0.29067

 Mulliken charges and spin densities:
               1          2
     1  Zn   0.307573   0.949478
     2  H   -0.307573   0.050522
 Sum of Mulliken charges =  -0.00000   1.00000

 Dipole moment (field-independent basis, Debye):
    X=              0.0000    Y=              0.0000    Z=              0.2154  Tot=              0.2154
 Quadrupole moment (field-independent basis, Debye-Ang):
   XX=            -14.4577   YY=            -14.4577   ZZ=            -20.7148
   XY=              0.0000   XZ=              0.0000   YZ=              0.0000

 \\#P ROCCSD(T)=(MaxCyc=150, Full)/Gen SCF=(maxcycle=400, vshift=200) P
 Normal termination of Gaussian 16 at Sat Apr 21 10:27:17 2018.
