 Gaussian 16, Revision A.03,
 Gaussian 16:  ES64L-G16RevA.03 25-Dec-2016

 ----------------------------------------------------------------------
 #P ROCCSD(T)=(MaxCyc=150, Full)/Gen SCF=(maxcycle=400, vshift=200) Pse
 udo=Read Integral(NoXCTest) Pop=Regular MaxDisk=500GB Guess=Read IOp(5
 /15=2)
 ----------------------------------------------------------------------

 ---
 ZnH
 ---
 Symbolic Z-matrix:
 Charge =  0 Multiplicity = 2

                         Standard orientation:
 ---------------------------------------------------------------------
 Center     Atomic      Atomic             Coordinates (Angstroms)
 Number     Number       Type             X           Y           Z
 ---------------------------------------------------------------------
      1         30           0        0.000000    0.000000    0.045161
      2          1           0        0.000000    0.000000   -1.354839
 ---------------------------------------------------------------------

 SCF Done:  E(ROHF) =  -226.480587217     A.U. after   21 cycles
 E2 =    -0.1121815712D+01 EUMP2 =    -0.22760240292884D+03
 CCSD(T)
 CCSD(T)= -0.22754636575D+03

 The electronic state is 2-SG.
 Alpha  occ. eigenvalues --   -5.89996  -3.97121  -3.97043  -3.97043  -0.80680
 Alpha  occ. eigenvalues --   -0.79941  -0.79941  -0.79576  -0.79576  -0.47654
 Alpha  occ. eigenvalues --   -0.27218
 Alpha virt. eigenvalues --    0.01946   0.01946   0.02255   0.03331   0.06379
 Alpha virt. eigenvalues --    0.06379   0.06883   0.11861   0.13922   0.15332
 Alpha virt. eigenvalues --    0.15332   0.15498   0.15498   0.18724   0.20822

 Mulliken charges and spin densities:
               1          2
     1  Zn   0.264724   0.934989
     2  H   -0.264724   0.065011
 Sum of Mulliken charges =  -0.00000   1.00000

 Dipole moment (field-independent basis, Debye):
    X=              0.0000    Y=              0.0000    Z=              0.2162  Tot=              0.2162
 Quadrupole moment (field-independent basis, Debye-Ang):
   XX=            -14.4523   YY=            -14.4523   ZZ=            -20.7160
   XY=              0.0000   XZ=              0.0000   YZ=              0.0000

 \\#P ROCCSD(T)=(MaxCyc=150, Full)/Gen SCF=(maxcycle=400, vshift=200) P
 CCSD(T)=-227.5463658\RMSD=2.498e-09\PG=C*V [C*(H1Zn1)]\\@
 Normal termination of Gaussian 16 at Mon Apr 30 08:40:43 2018.
