 Gaussian 16, Revision A.03,
 Gaussian 16:  ES64L-G16RevA.03 25-Dec-2016

 ----------------------------------------------------------------------
 #P ROCCSD(T)=(MaxCyc=150, Full)/Gen SCF=(maxcycle=400, vshift=200) Pse
 udo=Read Integral(NoXCTest) Pop=Regular MaxDisk=500GB Guess=Read IOp(5
 /15=2)
 ----------------------------------------------------------------------

 ---
 ZnH
 ---
 Symbolic Z-matrix:
 Charge =  0 Multiplicity = 2

                         Standard orientation:
 ---------------------------------------------------------------------
 Center     Atomic      Atomic             Coordinates (Angstroms)
 Number     Number       Type             X           Y           Z
 ---------------------------------------------------------------------
      1         30           0        0.000000    0.000000    0.045161
      2          1           0        0.000000    0.000000   -1.354839
 ---------------------------------------------------------------------

 SCF Done:  E(ROHF) =  -226.480465918     A.U. after   17 cycles
 E2 =    -0.1095397817D+01 EUMP2 =    -0.22757586373454D+03
 CCSD(T)
 CCSD(T)= -0.22752179199D+03

 The electronic state is 2-SG.
 Alpha  occ. eigenvalues --   -5.89996  -3.97122  -3.97045  -3.97045  -0.80682
 Alpha  occ. eigenvalues --   -0.79943  -0.79943  -0.79577  -0.79577  -0.47653
 Alpha  occ. eigenvalues --   -0.27217
 Alpha virt. eigenvalues --    0.02009   0.02009   0.02614   0.03685   0.06802
 Alpha virt. eigenvalues --    0.06802   0.07932   0.14283   0.17524   0.17882
 Alpha virt. eigenvalues --    0.17882   0.18173   0.18173   0.21513   0.23317

 Mulliken charges and spin densities:
               1          2
     1  Zn   0.283763   0.936268
     2  H   -0.283763   0.063732
 Sum of Mulliken charges =  -0.00000   1.00000

 Dipole moment (field-independent basis, Debye):
    X=              0.0000    Y=              0.0000    Z=              0.2162  Tot=              0.2162
 Quadrupole moment (field-independent basis, Debye-Ang):
   XX=            -14.4536   YY=            -14.4536   ZZ=            -20.7169
   XY=              0.0000   XZ=              0.0000   YZ=              0.0000

 \\#P ROCCSD(T)=(MaxCyc=150, Full)/Gen SCF=(maxcycle=400, vshift=200) P
 CCSD(T)=-227.521792\RMSD=6.680e-09\PG=C*V [C*(H1Zn1)]\\@
 Normal termination of Gaussian 16 at Sat Apr 21 11:19:19 2018.
