 Gaussian 16, Revision A.03,
 Gaussian 16:  ES64L-G16RevA.03 25-Dec-2016

 ----------------------------------------------------------------------
 #P ROCCSD(T)=(maxcyc=150, Full)/Gen 5d 7f SCF=(maxcycles=300) Integral
 (NoXCTest) MaxDisk=500GB Pop=Regular Pseudo=Read
 ----------------------------------------------------------------------

 ---
 CrH
 ---
 Symbolic Z-matrix:
 Charge =  0 Multiplicity = 6

                         Standard orientation:
 ---------------------------------------------------------------------
 Center     Atomic      Atomic             Coordinates (Angstroms)
 Number     Number       Type             X           Y           Z
 ---------------------------------------------------------------------
      1         24           0        0.000000    0.000000    0.052000
      2          1           0        0.000000    0.000000   -1.248000
 ---------------------------------------------------------------------

 SCF Done:  E(ROHF) =  -86.6390291333     A.U. after   32 cycles
 E2 =    -0.5702860062D+00 EUMP2 =    -0.87209315139488D+02
 CCSD(T)
 CCSD(T)= -0.87237348411D+02

 The electronic state is 6-SG.
 Alpha  occ. eigenvalues --   -3.65182  -2.40502  -2.40502  -2.38205  -0.47212
 Alpha  occ. eigenvalues --   -0.47212  -0.44872  -0.44496  -0.44496  -0.25354
 Alpha virt. eigenvalues --    0.01701   0.01701   0.01924   0.02413   0.06088
 Alpha virt. eigenvalues --    0.06140   0.06140   0.07837   0.07837   0.08123
 Alpha virt. eigenvalues --    0.08123   0.08185   0.10014   0.19424   0.22062

 Mulliken charges and spin densities:
               1          2
     1  Cr   0.656829   5.016125
     2  H   -0.656829  -0.016125
 Sum of Mulliken charges =  -0.00000   5.00000

 Dipole moment (field-independent basis, Debye):
    X=              0.0000    Y=              0.0000    Z=              2.0587  Tot=              2.0587
 Quadrupole moment (field-independent basis, Debye-Ang):
   XX=            -16.7399   YY=            -16.7399   ZZ=            -19.6217
   XY=              0.0000   XZ=              0.0000   YZ=              0.0000

 \\#P ROCCSD(T)=(maxcyc=150, Full)/Gen 5d 7f SCF=(maxcycles=300) Integr
 4SDQ=-87.2139984\CCSD=-87.2177143\CCSD(T)=-87.2373484\RMSD=2.393e-09\P
 Normal termination of Gaussian 16 at Mon Feb 12 22:05:42 2018.
