 Gaussian 16, Revision A.03,
 Gaussian 16:  ES64L-G16RevA.03 25-Dec-2016

 ----------------------------------------------------------------------
 #P ROCCSD(T)=(maxcyc=150, Full)/Gen 5d 7f SCF=(maxcycles=300, NoVarAcc
 , VShift=200) MaxDisk=100GB Pop=Regular Pseudo=Read Guess=Read
 ----------------------------------------------------------------------

 --
 Sc
 --
 Symbolic Z-matrix:
 Charge =  0 Multiplicity = 2

                         Standard orientation:
 ---------------------------------------------------------------------
 Center     Atomic      Atomic             Coordinates (Angstroms)
 Number     Number       Type             X           Y           Z
 ---------------------------------------------------------------------
      1         21           0        0.000000    0.000000    0.000000
 ---------------------------------------------------------------------

 SCF Done:  E(ROHF) =  -46.1546728079     A.U. after   13 cycles
 E2 =    -0.3934341551D+00 EUMP2 =    -0.46548106963033D+02
 CCSD(T)
 CCSD(T)= -0.46581589296D+02

 Unable to determine electronic state:  an orbital has unidentified symmetry.
 Alpha  occ. eigenvalues --   -2.63289  -1.62856  -1.62856  -1.58993  -0.34708
 Alpha  occ. eigenvalues --   -0.21548
 Alpha virt. eigenvalues --    0.01181   0.01271   0.01271   0.02001   0.02626
 Alpha virt. eigenvalues --    0.02629   0.02629   0.02635   0.02650   0.04266
 Alpha virt. eigenvalues --    0.04387   0.04387   0.07418   0.07495   0.07495

 Mulliken charges and spin densities:
               1          2
     1  Sc  -0.000000   1.000000
 Sum of Mulliken charges =  -0.00000   1.00000

 Dipole moment (field-independent basis, Debye):
    X=              0.0000    Y=              0.0000    Z=              0.0000  Tot=              0.0000
 Quadrupole moment (field-independent basis, Debye-Ang):
   XX=            -23.3117   YY=            -23.3117   ZZ=            -23.0165
   XY=              0.0000   XZ=              0.0000   YZ=             -0.0000

 1\1\GINC-C455-014\SP\ROCCSD(T)-Full\Gen\Sc1(2)\AANNABE\06-Mar-2018\0\\
 #P ROCCSD(T)=(maxcyc=150, Full)/Gen 5d 7f SCF=(maxcycles=300, NoVarAcc
 , VShift=200) MaxDisk=100GB Pop=Regular Pseudo=Read Guess=Read\\Sc\\0,
 2\Sc,0,0.,0.,0.\\Version=ES64L-G16RevA.03\HF=-46.1546728\MP2=-46.54810
 7\MP3=-46.5660693\PUHF=-46.1546728\PMP2-0=-46.548107\MP4SDQ=-46.565427
 9\CCSD=-46.5656868\CCSD(T)=-46.5815893\RMSD=9.709e-09\PG=OH [O(Sc1)]\\
 @

 Normal termination of Gaussian 16 at Tue Mar  6 12:22:46 2018.
