 Gaussian 16, Revision A.03,
 Gaussian 16:  ES64L-G16RevA.03 25-Dec-2016

 ----------------------------------------------------------------------
 #P ROCCSD(T)=(maxcyc=150, Window=(6,0), SaveAmplitudes, ReadAmplitudes
 )/Gen 5d 7f SCF=(maxcycles=300) Integral(NoXCTest, DKHSO) MaxDisk=500G
 B Pop=Regular Guess=Read IOp(5/15=2)
 ----------------------------------------------------------------------

 ---
 MnH
 ---
 Symbolic Z-matrix:
 Charge =  0 Multiplicity = 7

                         Standard orientation:
 ---------------------------------------------------------------------
 Center     Atomic      Atomic             Coordinates (Angstroms)
 Number     Number       Type             X           Y           Z
 ---------------------------------------------------------------------
      1         25           0        0.000000    0.000000    0.057692
      2          1           0        0.000000    0.000000   -1.442308
 ---------------------------------------------------------------------

 SCF Done:  E(ROHF) =  -1157.92806562     A.U. after   24 cycles
 E2 =    -0.5633969728D+00 EUMP2 =    -0.11584914625960D+04
 CCSD(T)
 CCSD(T)= -0.11585063549D+04

 The electronic state is 7-SG.
 Alpha  occ. eigenvalues -- -242.49269 -29.59774 -24.95215 -24.95215 -24.95109
 Alpha  occ. eigenvalues --   -4.08719  -2.73964  -2.73927  -2.73927  -0.64431
 Alpha  occ. eigenvalues --   -0.63574  -0.63574  -0.62960  -0.62960  -0.41744
 Alpha  occ. eigenvalues --   -0.25299
 Alpha virt. eigenvalues --    0.01343   0.01343   0.02254   0.03196   0.05823
 Alpha virt. eigenvalues --    0.05823   0.08465   0.08507   0.08507   0.08963
 Alpha virt. eigenvalues --    0.08963   0.09399   0.14133   0.20685   0.22787

 Mulliken charges and spin densities:
               1          2
     1  Mn   0.440695   5.956377
     2  H   -0.440695   0.043623
 Sum of Mulliken charges =   0.00000   6.00000

 Dipole moment (field-independent basis, Debye):
    X=              0.0000    Y=              0.0000    Z=              0.6076  Tot=              0.6076
 Quadrupole moment (field-independent basis, Debye-Ang):
   XX=            -16.3277   YY=            -16.3277   ZZ=            -25.9566
   XY=              0.0000   XZ=              0.0000   YZ=              0.0000

 1\1\GINC-C504-081\SP\ROCCSD(T)-RW\Gen\H1Mn1(7)\AANNABE\25-Feb-2018\0\\
 #P ROCCSD(T)=(maxcyc=150, Window=(6,0), SaveAmplitudes, ReadAmplitudes
 )/Gen 5d 7f SCF=(maxcycles=300) Integral(NoXCTest, DKHSO) MaxDisk=500G
 B Pop=Regular Guess=Read IOp(5/15=2)\\MnH\\0,7\Mn,0,0.,0.,0.\H,0,0.,0.
 ,1.5\\Version=ES64L-G16RevA.03\State=7-SG\HF=-1157.9280656\MP2=-1158.4
 914626\MP3=-1158.4836007\PUHF=-1157.9280656\PMP2-0=-1158.4914626\MP4SD
 Q=-1158.4913929\CCSD=-1158.491417\CCSD(T)=-1158.5063549\RMSD=8.950e-09
 \PG=C*V [C*(H1Mn1)]\\@

 Normal termination of Gaussian 16 at Sun Feb 25 22:48:21 2018.
