 Gaussian 16, Revision A.03,
 Gaussian 16:  ES64L-G16RevA.03 25-Dec-2016

 ----------------------------------------------------------------------
 #P ROCCSD(T)=(MaxCyc=150, FrzINGC)/Gen SCF=(maxcycle=400, vshift=200)
 Integral(DKHSO, NoXCTest) Pop=Regular MaxDisk=500GB Guess=Read IOp(5/1
 5=2)
 ----------------------------------------------------------------------

 ---
 ZnH
 ---
 Symbolic Z-matrix:
 Charge =  0 Multiplicity = 2

                         Standard orientation:
 ---------------------------------------------------------------------
 Center     Atomic      Atomic             Coordinates (Angstroms)
 Number     Number       Type             X           Y           Z
 ---------------------------------------------------------------------
      1         30           0        0.000000    0.000000    0.058065
      2          1           0        0.000000    0.000000   -1.741935
 ---------------------------------------------------------------------

 SCF Done:  E(ROHF) =  -1794.79921000     A.U. after   21 cycles
 E2 =    -0.1112496422D+01 EUMP2 =    -0.17959117064182D+04
 CCSD(T)
 CCSD(T)= -0.17958472933D+04

 The electronic state is 2-SG.
 Alpha  occ. eigenvalues -- -357.59993 -45.36544 -39.16857 -39.16857 -39.16745
 Alpha  occ. eigenvalues --   -5.83581  -3.91539  -3.91539  -3.91330  -0.80364
 Alpha  occ. eigenvalues --   -0.80364  -0.80007  -0.79874  -0.79874  -0.43728
 Alpha  occ. eigenvalues --   -0.28407
 Alpha virt. eigenvalues --    0.01799   0.01799   0.02372   0.03219   0.06151
 Alpha virt. eigenvalues --    0.06151   0.06752   0.12152   0.12760   0.15338
 Alpha virt. eigenvalues --    0.15338   0.15352   0.15352   0.17843   0.20983

 Mulliken charges and spin densities:
               1          2
     1  Zn   0.285462   0.896807
     2  H   -0.285462   0.103193
 Sum of Mulliken charges =  -0.00000   1.00000

 Dipole moment (field-independent basis, Debye):
    X=              0.0000    Y=             -0.0000    Z=              1.4113  Tot=              1.4113
 Quadrupole moment (field-independent basis, Debye-Ang):
   XX=            -14.9957   YY=            -14.9957   ZZ=            -22.0728
   XY=              0.0000   XZ=              0.0000   YZ=              0.0000

 \#P ROCCSD(T)=(MaxCyc=150, FrzINGC)/Gen SCF=(maxcycle=400, vshift=200)
 Normal termination of Gaussian 16 at Sun Apr 29 16:05:45 2018.
