 Gaussian 16, Revision A.03,
 Gaussian 16:  ES64L-G16RevA.03 25-Dec-2016

 ----------------------------------------------------------------------
 #P ROCCSD(T)=(MaxCyc=150, FrzINGC)/Gen SCF=(maxcycle=400, vshift=200)
 Integral(DKHSO, NoXCTest) Pop=Regular MaxDisk=500GB Guess=Read IOp(5/1
 5=2)
 ----------------------------------------------------------------------

 ---
 ZnH
 ---
 Symbolic Z-matrix:
 Charge =  0 Multiplicity = 2

                         Standard orientation:
 ---------------------------------------------------------------------
 Center     Atomic      Atomic             Coordinates (Angstroms)
 Number     Number       Type             X           Y           Z
 ---------------------------------------------------------------------
      1         30           0        0.000000    0.000000    0.058065
      2          1           0        0.000000    0.000000   -1.741935
 ---------------------------------------------------------------------

 SCF Done:  E(ROHF) =  -1794.79888024     A.U. after   18 cycles
 E2 =    -0.1086406390D+01 EUMP2 =    -0.17958852866264D+04
 CCSD(T)
 CCSD(T)= -0.17958227315D+04

 The electronic state is 2-SG.
 Alpha  occ. eigenvalues -- -357.59985 -45.36542 -39.16856 -39.16856 -39.16744
 Alpha  occ. eigenvalues --   -5.83581  -3.91539  -3.91539  -3.91329  -0.80364
 Alpha  occ. eigenvalues --   -0.80364  -0.80006  -0.79873  -0.79873  -0.43727
 Alpha  occ. eigenvalues --   -0.28405
 Alpha virt. eigenvalues --    0.01857   0.01857   0.02853   0.03440   0.06568
 Alpha virt. eigenvalues --    0.06568   0.07757   0.13860   0.16321   0.17907
 Alpha virt. eigenvalues --    0.17907   0.17975   0.17975   0.20839   0.23431

 Mulliken charges and spin densities:
               1          2
     1  Zn   0.320276   0.898003
     2  H   -0.320276   0.101997
 Sum of Mulliken charges =  -0.00000   1.00000

 Dipole moment (field-independent basis, Debye):
    X=              0.0000    Y=              0.0000    Z=              1.4106  Tot=              1.4106
 Quadrupole moment (field-independent basis, Debye-Ang):
   XX=            -14.9964   YY=            -14.9964   ZZ=            -22.0748
   XY=              0.0000   XZ=              0.0000   YZ=              0.0000

 \#P ROCCSD(T)=(MaxCyc=150, FrzINGC)/Gen SCF=(maxcycle=400, vshift=200)
 922\CCSD(T)=-1795.8227315\RMSD=6.734e-09\PG=C*V [C*(H1Zn1)]\\@
 Normal termination of Gaussian 16 at Sat Apr 21 11:05:36 2018.
