 Gaussian 16, Revision A.03,
 Gaussian 16:  ES64L-G16RevA.03 25-Dec-2016

 ----------------------------------------------------------------------
 #P ROCCSD(T)=(maxcyc=150, Full, SaveAmplitudes, ReadAmplitudes)/Gen 5d
  7f SCF=(maxcycles=300) Integral(NoXCTest) MaxDisk=500GB Pop=Regular P
 seudo=Read Guess=Read
 ----------------------------------------------------------------------

 ---
 TiO
 ---
 Symbolic Z-matrix:
 Charge =  0 Multiplicity = 3

                         Standard orientation:
 ---------------------------------------------------------------------
 Center     Atomic      Atomic             Coordinates (Angstroms)
 Number     Number       Type             X           Y           Z
 ---------------------------------------------------------------------
      1         22           0        0.000000    0.000000    0.453333
      2          8           0        0.000000    0.000000   -1.246667
 ---------------------------------------------------------------------

 SCF Done:  E(ROHF) =  -73.2661088701     A.U. after   21 cycles
 E2 =    -0.7772992634D+00 EUMP2 =    -0.74043408133520D+02
 CCSD(T)
 CCSD(T)= -0.74072912756D+02

 Unable to determine electronic state:  an orbital has unidentified symmetry.
 Alpha  occ. eigenvalues --   -3.02743  -1.93810  -1.93810  -1.90849  -1.14645
 Alpha  occ. eigenvalues --   -0.47993  -0.45125  -0.42198  -0.42198  -0.27497
 Alpha virt. eigenvalues --   -0.00035  -0.00035   0.01121   0.02265   0.03382
 Alpha virt. eigenvalues --    0.03382   0.03647   0.03738   0.04145   0.04237
 Alpha virt. eigenvalues --    0.04237   0.04717   0.08259   0.10188   0.11409

 Mulliken charges and spin densities:
               1          2
     1  Ti   1.029952   1.971600
     2  O   -1.029952   0.028400
 Sum of Mulliken charges =  -0.00000   2.00000

 Dipole moment (field-independent basis, Debye):
    X=              0.0000    Y=              0.0000    Z=              5.1201  Tot=              5.1201
 Quadrupole moment (field-independent basis, Debye-Ang):
   XX=            -21.5870   YY=            -21.5870   ZZ=            -29.7583
   XY=              0.0000   XZ=              0.0000   YZ=              0.0000

 \\#P ROCCSD(T)=(maxcyc=150, Full, SaveAmplitudes, ReadAmplitudes)/Gen
 -0=-74.0434081\CCSD=-74.0231977\CCSD(T)=-74.0729128\RMSD=8.917e-10\PG=
 Normal termination of Gaussian 16 at Sat Mar 10 03:19:07 2018.
