 Gaussian 16, Revision A.03,
 Gaussian 16:  ES64L-G16RevA.03 25-Dec-2016

 ----------------------------------------------------------------------
 #P ROCCSD(T)=(maxcyc=150, Full, SaveAmplitudes, ReadAmplitudes)/Gen 5d
  7f SCF=(maxcycles=300) Integral(NoXCTest) MaxDisk=500GB Pop=Regular P
 seudo=Read Guess=Read IOp(5/15=2)
 ----------------------------------------------------------------------

 ---
 CrO
 ---
 Symbolic Z-matrix:
 Charge =  0 Multiplicity = 5

                         Standard orientation:
 ---------------------------------------------------------------------
 Center     Atomic      Atomic             Coordinates (Angstroms)
 Number     Number       Type             X           Y           Z
 ---------------------------------------------------------------------
      1         24           0        0.000000    0.000000    0.425000
      2          8           0        0.000000    0.000000   -1.275000
 ---------------------------------------------------------------------

 SCF Done:  E(ROHF) =  -102.016023762     A.U. after   41 cycles
 E2 =    -0.8813062752D+00 EUMP2 =    -0.10289733003733D+03
 CCSD(T)
 CCSD(T)= -0.10294339416D+03

 Unable to determine electronic state:  an orbital has unidentified symmetry.
 Alpha  occ. eigenvalues --   -3.68462  -2.46450  -2.41716  -2.40655  -1.10209
 Alpha  occ. eigenvalues --   -0.55779  -0.55721  -0.53934  -0.49557  -0.36563
 Alpha  occ. eigenvalues --   -0.33784  -0.32929
 Alpha virt. eigenvalues --   -0.03576   0.00852   0.01569   0.02141   0.03727
 Alpha virt. eigenvalues --    0.05043   0.06356   0.07508   0.07525   0.07684
 Alpha virt. eigenvalues --    0.08308   0.08790   0.13262   0.14721   0.15521

 Mulliken charges and spin densities:
               1          2
     1  Cr   1.181541   3.904560
     2  O   -1.181541   0.095440
 Sum of Mulliken charges =  -0.00000   4.00000

 Dipole moment (field-independent basis, Debye):
    X=              0.0000    Y=              0.0000    Z=              8.9133  Tot=              8.9133
 Quadrupole moment (field-independent basis, Debye-Ang):
   XX=            -19.6943   YY=            -18.6310   ZZ=            -23.0102
   XY=              0.0000   XZ=              0.0000   YZ=              0.0000

 \\#P ROCCSD(T)=(maxcyc=150, Full, SaveAmplitudes, ReadAmplitudes)/Gen
 02.892626\CCSD(T)=-102.9433942\RMSD=9.877e-09\PG=C*V [C*(O1Cr1)]\\@
 Normal termination of Gaussian 16 at Tue Mar 13 06:23:02 2018.
