 Gaussian 16, Revision A.03,
 Gaussian 16:  ES64L-G16RevA.03 25-Dec-2016

 ----------------------------------------------------------------------
 #P ROCCSD(T)=(maxcyc=150, Full, SaveAmplitudes, ReadAmplitudes)/Gen 5d
  7f SCF=(maxcycles=300) Integral(NoXCTest) MaxDisk=500GB Pop=Regular P
 seudo=Read Guess=Read
 ----------------------------------------------------------------------

 ---
 ScO
 ---
 Symbolic Z-matrix:
 Charge =  0 Multiplicity = 2

                         Standard orientation:
 ---------------------------------------------------------------------
 Center     Atomic      Atomic             Coordinates (Angstroms)
 Number     Number       Type             X           Y           Z
 ---------------------------------------------------------------------
      1         21           0        0.000000    0.000000    0.386207
      2          8           0        0.000000    0.000000   -1.013793
 ---------------------------------------------------------------------

 SCF Done:  E(ROHF) =  -61.8954333330     A.U. after   17 cycles
 E2 =    -0.7029585319D+00 EUMP2 =    -0.62598391864844D+02
 CCSD(T)
 CCSD(T)= -0.62623342174D+02

 The electronic state is 2-SG.
 Alpha  occ. eigenvalues --   -2.59040  -1.71765  -1.55175  -1.55175  -1.09421
 Alpha  occ. eigenvalues --   -0.52515  -0.52515  -0.46163  -0.21018
 Alpha virt. eigenvalues --    0.00809   0.00809   0.02024   0.02043   0.02789
 Alpha virt. eigenvalues --    0.02789   0.02942   0.02942   0.02973   0.03931
 Alpha virt. eigenvalues --    0.03931   0.06227   0.07899   0.07899   0.08896

 Mulliken charges and spin densities:
               1          2
     1  Sc   1.098691   1.001939
     2  O   -1.098691  -0.001939
 Sum of Mulliken charges =  -0.00000   1.00000

 Dipole moment (field-independent basis, Debye):
    X=              0.0000    Y=              0.0000    Z=              1.5129  Tot=              1.5129
 Quadrupole moment (field-independent basis, Debye-Ang):
   XX=            -22.2814   YY=            -22.2814   ZZ=            -30.2662
   XY=              0.0000   XZ=              0.0000   YZ=              0.0000

 \\#P ROCCSD(T)=(maxcyc=150, Full, SaveAmplitudes, ReadAmplitudes)/Gen
 954333\PMP2-0=-62.5983919\CCSD=-62.5890113\CCSD(T)=-62.6233422\RMSD=4.
 Normal termination of Gaussian 16 at Mon Mar  5 19:34:10 2018.
