 Gaussian 16, Revision A.03,
 Gaussian 16:  ES64L-G16RevA.03 25-Dec-2016

 ----------------------------------------------------------------------
 #P ROCCSD(T)=(maxcyc=150, Full, SaveAmplitudes, ReadAmplitudes)/Gen 5d
  7f SCF=(maxcycles=300) Integral(NoXCTest) MaxDisk=500GB Pop=Regular P
 seudo=Read Guess=Read IOp(5/15=2)
 ----------------------------------------------------------------------

 ---
 MnH
 ---
 Symbolic Z-matrix:
 Charge =  0 Multiplicity = 7

                         Standard orientation:
 ---------------------------------------------------------------------
 Center     Atomic      Atomic             Coordinates (Angstroms)
 Number     Number       Type             X           Y           Z
 ---------------------------------------------------------------------
      1         25           0        0.000000    0.000000    0.057692
      2          1           0        0.000000    0.000000   -1.442308
 ---------------------------------------------------------------------

 SCF Done:  E(ROHF) =  -104.235198020     A.U. after   26 cycles
 E2 =    -0.5920718946D+00 EUMP2 =    -0.10482726991488D+03
 CCSD(T)
 CCSD(T)= -0.10484981107D+03

 The electronic state is 7-SG.
 Alpha  occ. eigenvalues --   -4.09282  -2.75485  -2.75355  -2.75355  -0.64325
 Alpha  occ. eigenvalues --   -0.63419  -0.63419  -0.62846  -0.62846  -0.41761
 Alpha  occ. eigenvalues --   -0.25533
 Alpha virt. eigenvalues --    0.01313   0.01313   0.02256   0.03188   0.05761
 Alpha virt. eigenvalues --    0.05761   0.08476   0.08514   0.08514   0.08970
 Alpha virt. eigenvalues --    0.08970   0.09397   0.14113   0.20695   0.22591

 Mulliken charges and spin densities:
               1          2
     1  Mn   0.440580   5.959044
     2  H   -0.440580   0.040956
 Sum of Mulliken charges =  -0.00000   6.00000

 Dipole moment (field-independent basis, Debye):
    X=              0.0000    Y=              0.0000    Z=              0.6173  Tot=              0.6173
 Quadrupole moment (field-independent basis, Debye-Ang):
   XX=            -15.9181   YY=            -15.9181   ZZ=            -25.4698
   XY=              0.0000   XZ=              0.0000   YZ=              0.0000

 \\#P ROCCSD(T)=(maxcyc=150, Full, SaveAmplitudes, ReadAmplitudes)/Gen
 326106\CCSD=-104.8333321\CCSD(T)=-104.8498111\RMSD=7.149e-09\PG=C*V [C
 Normal termination of Gaussian 16 at Mon Feb 26 06:03:01 2018.
