 Gaussian 16, Revision A.03,
 Gaussian 16:  ES64L-G16RevA.03 25-Dec-2016

 ----------------------------------------------------------------------
 #P ROCCSD(T)=(maxcyc=150, Full)/Gen 5d 7f SCF=(maxcycles=300, NoVarAcc
 , VShift=300) MaxDisk=100GB Pop=Regular Pseudo=Read Guess=Read
 ----------------------------------------------------------------------

 --
 Sc
 --
 Symbolic Z-matrix:
 Charge =  0 Multiplicity = 2

                         Standard orientation:
 ---------------------------------------------------------------------
 Center     Atomic      Atomic             Coordinates (Angstroms)
 Number     Number       Type             X           Y           Z
 ---------------------------------------------------------------------
      1         21           0        0.000000    0.000000    0.000000
 ---------------------------------------------------------------------

 SCF Done:  E(ROHF) =  -46.1356012019     A.U. after   27 cycles
 E2 =    -0.3699398766D+00 EUMP2 =    -0.46505541078459D+02
 CCSD(T)
 CCSD(T)= -0.46542700250D+02

 Unable to determine electronic state:  an orbital has unidentified symmetry.
 Alpha  occ. eigenvalues --   -2.62042  -1.63453  -1.63453  -1.59605  -0.34664
 Alpha  occ. eigenvalues --   -0.21487
 Alpha virt. eigenvalues --    0.01218   0.01317   0.01317   0.02289   0.03910
 Alpha virt. eigenvalues --    0.03918   0.03918   0.03940   0.04005   0.04756
 Alpha virt. eigenvalues --    0.04881   0.04881   0.10085   0.10418   0.10418

 Mulliken charges and spin densities:
               1          2
     1  Sc  -0.000000   1.000000
 Sum of Mulliken charges =  -0.00000   1.00000

 Dipole moment (field-independent basis, Debye):
    X=             -0.0000    Y=              0.0000    Z=              0.0000  Tot=              0.0000
 Quadrupole moment (field-independent basis, Debye-Ang):
   XX=            -23.4045   YY=            -23.4045   ZZ=            -23.1126
   XY=              0.0000   XZ=              0.0000   YZ=             -0.0000

 1\1\GINC-C506-032\SP\ROCCSD(T)-Full\Gen\Sc1(2)\AANNABE\19-Apr-2018\0\\
 #P ROCCSD(T)=(maxcyc=150, Full)/Gen 5d 7f SCF=(maxcycles=300, NoVarAcc
 , VShift=300) MaxDisk=100GB Pop=Regular Pseudo=Read Guess=Read\\Sc\\0,
 2\Sc,0,0.,0.,0.\\Version=ES64L-G16RevA.03\HF=-46.1356012\MP2=-46.50554
 11\MP3=-46.5278154\PUHF=-46.1356012\PMP2-0=-46.5055411\MP4SDQ=-46.5278
 555\CCSD=-46.5281137\CCSD(T)=-46.5427002\RMSD=6.374e-09\PG=OH [O(Sc1)]
 \\@

 Normal termination of Gaussian 16 at Thu Apr 19 12:53:47 2018.
