 Gaussian 16, Revision A.03,
 Gaussian 16:  ES64L-G16RevA.03 25-Dec-2016

 ----------------------------------------------------------------------
 #P ROCCSD(T)=(MaxCyc=150, Full)/Gen SCF=(maxcycle=400, vshift=200) Pse
 udo=Read Integral(NoXCTest) Pop=Regular MaxDisk=500GB Guess=Read IOp(5
 /15=2)
 ----------------------------------------------------------------------

 ---
 FeH
 ---
 Symbolic Z-matrix:
 Charge =  0 Multiplicity = 4

                         Standard orientation:
 ---------------------------------------------------------------------
 Center     Atomic      Atomic             Coordinates (Angstroms)
 Number     Number       Type             X           Y           Z
 ---------------------------------------------------------------------
      1         26           0        0.000000    0.000000    0.040741
      2          1           0        0.000000    0.000000   -1.059259
 ---------------------------------------------------------------------

 SCF Done:  E(ROHF) =  -123.017540421     A.U. after   17 cycles
 E2 =    -0.8283218030D+00 EUMP2 =    -0.12384586222376D+03
 CCSD(T)
 CCSD(T)= -0.12383710519D+03

 Unable to determine electronic state:  partially filled degenerate orbitals.
 Alpha  occ. eigenvalues --   -4.31256  -2.86114  -2.82661  -2.82661  -0.58955
 Alpha  occ. eigenvalues --   -0.57154  -0.57154  -0.54025  -0.49196  -0.30038
 Alpha virt. eigenvalues --    0.00604   0.02181   0.02181   0.02254   0.04092
 Alpha virt. eigenvalues --    0.05986   0.06227   0.06227   0.06291   0.06299
 Alpha virt. eigenvalues --    0.07005   0.07005   0.07998   0.12849   0.17525

 Mulliken charges and spin densities:
               1          2
     1  Fe   0.296875   2.985990
     2  H   -0.296875   0.014010
 Sum of Mulliken charges =   0.00000   3.00000

 Dipole moment (field-independent basis, Debye):
    X=              0.0000    Y=              0.0000    Z=              2.7128  Tot=              2.7128
 Quadrupole moment (field-independent basis, Debye-Ang):
   XX=            -17.0027   YY=            -17.0027   ZZ=            -15.9193
   XY=              0.0000   XZ=              0.0000   YZ=              0.0000

 \\#P ROCCSD(T)=(MaxCyc=150, Full)/Gen SCF=(maxcycle=400, vshift=200) P
 \PMP2-0=-123.8458622\MP4SDQ=-123.8163721\CCSD=-123.8063501\CCSD(T)=-12
 Normal termination of Gaussian 16 at Sun Apr 22 23:55:35 2018.
