 Gaussian 16, Revision A.03,
 Gaussian 16:  ES64L-G16RevA.03 25-Dec-2016

 ----------------------------------------------------------------------
 #P ROCCSD(T)=(MaxCyc=150, Full)/Gen SCF=(maxcycle=400, vshift=200) Pse
 udo=Read Integral(NoXCTest) Pop=Regular MaxDisk=500GB Guess=Read IOp(5
 /15=2)
 ----------------------------------------------------------------------

 ---
 FeH
 ---
 Symbolic Z-matrix:
 Charge =  0 Multiplicity = 4

                         Standard orientation:
 ---------------------------------------------------------------------
 Center     Atomic      Atomic             Coordinates (Angstroms)
 Number     Number       Type             X           Y           Z
 ---------------------------------------------------------------------
      1         26           0        0.000000    0.000000    0.040741
      2          1           0        0.000000    0.000000   -1.059259
 ---------------------------------------------------------------------

 SCF Done:  E(ROHF) =  -123.016003205     A.U. after   33 cycles
 E2 =    -0.7785148364D+00 EUMP2 =    -0.12379451804160D+03
 CCSD(T)
 CCSD(T)= -0.12378954178D+03

 Unable to determine electronic state:  an orbital has unidentified symmetry.
 Alpha  occ. eigenvalues --   -4.31264  -2.86131  -2.82675  -2.82675  -0.58949
 Alpha  occ. eigenvalues --   -0.57156  -0.57156  -0.54029  -0.49191  -0.30040
 Alpha virt. eigenvalues --    0.00711   0.02438   0.02438   0.02764   0.04904
 Alpha virt. eigenvalues --    0.08119   0.08119   0.09526   0.10193   0.10193
 Alpha virt. eigenvalues --    0.10332   0.10365   0.10542   0.16305   0.25466

 Mulliken charges and spin densities:
               1          2
     1  Fe   0.225292   2.986874
     2  H   -0.225292   0.013126
 Sum of Mulliken charges =   0.00000   3.00000

 Dipole moment (field-independent basis, Debye):
    X=              0.0000    Y=              0.0000    Z=              2.7148  Tot=              2.7148
 Quadrupole moment (field-independent basis, Debye-Ang):
   XX=            -17.0102   YY=            -17.0102   ZZ=            -15.9161
   XY=              0.0000   XZ=              0.0000   YZ=              0.0000

 \\#P ROCCSD(T)=(MaxCyc=150, Full)/Gen SCF=(maxcycle=400, vshift=200) P
 PMP2-0=-123.794518\MP4SDQ=-123.7710931\CCSD=-123.7605919\CCSD(T)=-123.
 Normal termination of Gaussian 16 at Sun Apr 22 23:02:24 2018.
