 Gaussian 16, Revision A.03,
 Gaussian 16:  ES64L-G16RevA.03 25-Dec-2016

 ----------------------------------------------------------------------
 #P ROCCSD(T)=(MaxCyc=150, Full)/Gen SCF=(maxcycle=400, vshift=200) Pse
 udo=Read Integral(NoXCTest) Pop=Regular MaxDisk=500GB Guess=Read IOp(5
 /15=2)
 ----------------------------------------------------------------------

 ---
 FeH
 ---
 Symbolic Z-matrix:
 Charge =  0 Multiplicity = 4

                         Standard orientation:
 ---------------------------------------------------------------------
 Center     Atomic      Atomic             Coordinates (Angstroms)
 Number     Number       Type             X           Y           Z
 ---------------------------------------------------------------------
      1         26           0        0.000000    0.000000    0.040741
      2          1           0        0.000000    0.000000   -1.059259
 ---------------------------------------------------------------------

 SCF Done:  E(ROHF) =  -123.017319201     A.U. after   21 cycles
 E2 =    -0.8140259070D+00 EUMP2 =    -0.12383134510774D+03
 CCSD(T)
 CCSD(T)= -0.12382454783D+03

 Unable to determine electronic state:  partially filled degenerate orbitals.
 Alpha  occ. eigenvalues --   -4.31257  -2.86117  -2.82664  -2.82664  -0.58954
 Alpha  occ. eigenvalues --   -0.57156  -0.57156  -0.54028  -0.49193  -0.30037
 Alpha virt. eigenvalues --    0.00676   0.02242   0.02242   0.02513   0.04801
 Alpha virt. eigenvalues --    0.06287   0.06781   0.06781   0.06866   0.06877
 Alpha virt. eigenvalues --    0.07323   0.07323   0.09083   0.17163   0.18494

 Mulliken charges and spin densities:
               1          2
     1  Fe   0.304329   2.988684
     2  H   -0.304329   0.011316
 Sum of Mulliken charges =  -0.00000   3.00000

 Dipole moment (field-independent basis, Debye):
    X=              0.0000    Y=              0.0000    Z=              2.7125  Tot=              2.7125
 Quadrupole moment (field-independent basis, Debye-Ang):
   XX=            -17.0042   YY=            -17.0042   ZZ=            -15.9185
   XY=              0.0000   XZ=              0.0000   YZ=              0.0000

 \\#P ROCCSD(T)=(MaxCyc=150, Full)/Gen SCF=(maxcycle=400, vshift=200) P
 \PMP2-0=-123.8313451\MP4SDQ=-123.8044453\CCSD=-123.7942633\CCSD(T)=-12
 Normal termination of Gaussian 16 at Sun Apr 22 23:17:00 2018.
