 Gaussian 16, Revision A.03,
 Gaussian 16:  ES64L-G16RevA.03 25-Dec-2016

 ----------------------------------------------------------------------
 #P ROCCSD(T)=(maxcyc=150, Full)/Gen 5d 7f SCF=(maxcycles=300, NoVarAcc
 , VShift=300) MaxDisk=100GB Pop=Regular Pseudo=Read Guess=Read IOp(5/1
 5=2)
 ----------------------------------------------------------------------

 --
 Mn
 --
 Symbolic Z-matrix:
 Charge =  0 Multiplicity = 6

                         Standard orientation:
 ---------------------------------------------------------------------
 Center     Atomic      Atomic             Coordinates (Angstroms)
 Number     Number       Type             X           Y           Z
 ---------------------------------------------------------------------
      1         25           0        0.000000    0.000000    0.000000
 ---------------------------------------------------------------------

 SCF Done:  E(ROHF) =  -103.243492831     A.U. after   17 cycles
 E2 =    -0.5709210036D+00 EUMP2 =    -0.10381441383473D+03
 CCSD(T)
 CCSD(T)= -0.10383526959D+03

 The electronic state is 6-A1G.
 Alpha  occ. eigenvalues --   -4.13754  -2.75784  -2.75784  -2.75784  -0.62913
 Alpha  occ. eigenvalues --   -0.62913  -0.62913  -0.62913  -0.62913  -0.26844
 Alpha virt. eigenvalues --    0.01848   0.01848   0.01848   0.02662   0.06596
 Alpha virt. eigenvalues --    0.06596   0.06596   0.08967   0.08967   0.08967
 Alpha virt. eigenvalues --    0.08967   0.08967   0.13905   0.24257   0.24257

 Mulliken charges and spin densities:
               1          2
     1  Mn  -0.000000   5.000000
 Sum of Mulliken charges =  -0.00000   5.00000

 Dipole moment (field-independent basis, Debye):
    X=              0.0000    Y=              0.0000    Z=              0.0000  Tot=              0.0000
 Quadrupole moment (field-independent basis, Debye-Ang):
   XX=            -18.8332   YY=            -18.8332   ZZ=            -18.8332
   XY=              0.0000   XZ=              0.0000   YZ=             -0.0000

 1\1\GINC-C506-044\SP\ROCCSD(T)-Full\Gen\Mn1(6)\AANNABE\04-May-2018\0\\
 #P ROCCSD(T)=(maxcyc=150, Full)/Gen 5d 7f SCF=(maxcycles=300, NoVarAcc
 , VShift=300) MaxDisk=100GB Pop=Regular Pseudo=Read Guess=Read IOp(5/1
 5=2)\\Mn\\0,6\Mn,0,0.,0.,0.\\Version=ES64L-G16RevA.03\State=6-A1G\HF=-
 103.2434928\MP2=-103.8144138\MP3=-103.8142747\PUHF=-103.2434928\PMP2-0
 =-103.8144138\MP4SDQ=-103.8176499\CCSD=-103.8176447\CCSD(T)=-103.83526
 96\RMSD=4.048e-09\PG=OH [O(Mn1)]\\@

 Normal termination of Gaussian 16 at Fri May  4 14:32:33 2018.
