 Gaussian 16, Revision A.03,
 Gaussian 16:  ES64L-G16RevA.03 25-Dec-2016

 ----------------------------------------------------------------------
 #P ROCCSD(T)=(MaxCyc=150, Full)/Gen SCF=(maxcycle=400, vshift=200) Pse
 udo=Read Integral(NoXCTest) Pop=Regular MaxDisk=500GB Guess=Read IOp(5
 /15=2)
 ----------------------------------------------------------------------

 ---
 CoH
 ---
 Symbolic Z-matrix:
 Charge =  0 Multiplicity = 3

                         Standard orientation:
 ---------------------------------------------------------------------
 Center     Atomic      Atomic             Coordinates (Angstroms)
 Number     Number       Type             X           Y           Z
 ---------------------------------------------------------------------
      1         27           0        0.000000    0.000000    0.064286
      2          1           0        0.000000    0.000000   -1.735714
 ---------------------------------------------------------------------

 SCF Done:  E(ROHF) =  -144.803633809     A.U. after   76 cycles
 E2 =    -0.8487962808D+00 EUMP2 =    -0.14565243008987D+03
 CCSD(T)
 CCSD(T)= -0.14563428746D+03

 Unable to determine electronic state:  partially filled degenerate orbitals.
 Alpha  occ. eigenvalues --   -4.54373  -2.96443  -2.96443  -2.96359  -0.49741
 Alpha  occ. eigenvalues --   -0.49146  -0.45022  -0.44587  -0.44587  -0.32032
 Alpha virt. eigenvalues --   -0.00580   0.02581   0.02581   0.03545   0.04374
 Alpha virt. eigenvalues --    0.09298   0.09298   0.10088   0.11165   0.11209
 Alpha virt. eigenvalues --    0.11467   0.11467   0.11727   0.18404   0.23956

 Mulliken charges and spin densities:
               1          2
     1  Co   0.385619   1.990963
     2  H   -0.385619   0.009037
 Sum of Mulliken charges =  -0.00000   2.00000

 Dipole moment (field-independent basis, Debye):
    X=              0.0000    Y=              0.0000    Z=              4.9444  Tot=              4.9444
 Quadrupole moment (field-independent basis, Debye-Ang):
   XX=            -14.1009   YY=            -14.1009   ZZ=            -19.6248
   XY=              0.0000   XZ=              0.0000   YZ=              0.0000

 \\#P ROCCSD(T)=(MaxCyc=150, Full)/Gen SCF=(maxcycle=400, vshift=200) P
 \PMP2-0=-145.6524301\MP4SDQ=-145.6281601\CCSD=-145.6047874\CCSD(T)=-14
 Normal termination of Gaussian 16 at Thu May  3 15:15:39 2018.
