 Gaussian 16, Revision A.03,
 Gaussian 16:  ES64L-G16RevA.03 25-Dec-2016

 ----------------------------------------------------------------------
 #P ROCCSD(T)=(MaxCyc=150, Full)/Gen SCF=(maxcycle=400, vshift=200) Pse
 udo=Read Integral(NoXCTest) Pop=Regular MaxDisk=500GB Guess=Read IOp(5
 /15=2)
 ----------------------------------------------------------------------

 ---
 CoH
 ---
 Symbolic Z-matrix:
 Charge =  0 Multiplicity = 3

                         Standard orientation:
 ---------------------------------------------------------------------
 Center     Atomic      Atomic             Coordinates (Angstroms)
 Number     Number       Type             X           Y           Z
 ---------------------------------------------------------------------
      1         27           0        0.000000    0.000000    0.064286
      2          1           0        0.000000    0.000000   -1.735714
 ---------------------------------------------------------------------

 SCF Done:  E(ROHF) =  -144.805674220     A.U. after   27 cycles
 E2 =    -0.9100890347D+00 EUMP2 =    -0.14571576325483D+03
 CCSD(T)
 CCSD(T)= -0.14569374427D+03

 Unable to determine electronic state:  partially filled degenerate orbitals.
 Alpha  occ. eigenvalues --   -4.54366  -2.96429  -2.96429  -2.96345  -0.49743
 Alpha  occ. eigenvalues --   -0.49149  -0.45034  -0.44602  -0.44602  -0.32033
 Alpha virt. eigenvalues --   -0.00620   0.02251   0.02251   0.02871   0.03543
 Alpha virt. eigenvalues --    0.06404   0.06565   0.06575   0.06882   0.06882
 Alpha virt. eigenvalues --    0.08101   0.08101   0.08958   0.13934   0.17080

 Mulliken charges and spin densities:
               1          2
     1  Co   0.334172   1.995702
     2  H   -0.334172   0.004298
 Sum of Mulliken charges =  -0.00000   2.00000

 Dipole moment (field-independent basis, Debye):
    X=              0.0000    Y=              0.0000    Z=              4.9395  Tot=              4.9395
 Quadrupole moment (field-independent basis, Debye-Ang):
   XX=            -14.0872   YY=            -14.0872   ZZ=            -19.6357
   XY=              0.0000   XZ=              0.0000   YZ=              0.0000

 \\#P ROCCSD(T)=(MaxCyc=150, Full)/Gen SCF=(maxcycle=400, vshift=200) P
 \PMP2-0=-145.7157633\MP4SDQ=-145.6847363\CCSD=-145.6621272\CCSD(T)=-14
 Normal termination of Gaussian 16 at Thu May  3 18:14:54 2018.
