 Gaussian 16, Revision A.03,
 Gaussian 16:  ES64L-G16RevA.03 25-Dec-2016

 ----------------------------------------------------------------------
 #P ROCCSD(T)=(MaxCyc=150, Full)/Gen SCF=(maxcycle=400, vshift=200) Pse
 udo=Read Integral(NoXCTest) Pop=Regular MaxDisk=500GB Guess=Read IOp(5
 /15=2)
 ----------------------------------------------------------------------

 ---
 CoH
 ---
 Symbolic Z-matrix:
 Charge =  0 Multiplicity = 3

                         Standard orientation:
 ---------------------------------------------------------------------
 Center     Atomic      Atomic             Coordinates (Angstroms)
 Number     Number       Type             X           Y           Z
 ---------------------------------------------------------------------
      1         27           0        0.000000    0.000000    0.064286
      2          1           0        0.000000    0.000000   -1.735714
 ---------------------------------------------------------------------

 SCF Done:  E(ROHF) =  -144.805333418     A.U. after   37 cycles
 E2 =    -0.8900451197D+00 EUMP2 =    -0.14569537853805D+03
 CCSD(T)
 CCSD(T)= -0.14567561262D+03

 Unable to determine electronic state:  partially filled degenerate orbitals.
 Alpha  occ. eigenvalues --   -4.54365  -2.96432  -2.96432  -2.96348  -0.49745
 Alpha  occ. eigenvalues --   -0.49151  -0.45030  -0.44596  -0.44596  -0.32033
 Alpha virt. eigenvalues --   -0.00592   0.02328   0.02328   0.03209   0.04093
 Alpha virt. eigenvalues --    0.06975   0.07259   0.07273   0.07552   0.07552
 Alpha virt. eigenvalues --    0.08496   0.08496   0.10302   0.17220   0.19415

 Mulliken charges and spin densities:
               1          2
     1  Co   0.365369   1.996780
     2  H   -0.365369   0.003220
 Sum of Mulliken charges =  -0.00000   2.00000

 Dipole moment (field-independent basis, Debye):
    X=              0.0000    Y=              0.0000    Z=              4.9396  Tot=              4.9396
 Quadrupole moment (field-independent basis, Debye-Ang):
   XX=            -14.0881   YY=            -14.0881   ZZ=            -19.6348
   XY=              0.0000   XZ=              0.0000   YZ=              0.0000

 \\#P ROCCSD(T)=(MaxCyc=150, Full)/Gen SCF=(maxcycle=400, vshift=200) P
 \PMP2-0=-145.6953785\MP4SDQ=-145.6674962\CCSD=-145.6445781\CCSD(T)=-14
 Normal termination of Gaussian 16 at Thu May  3 15:59:10 2018.
