 Gaussian 16, Revision A.03,
 Gaussian 16:  ES64L-G16RevA.03 25-Dec-2016

 ----------------------------------------------------------------------
 #P ROCCSD(T)=(MaxCyc=150, Full)/Gen SCF=(maxcycle=400, vshift=200) Pse
 udo=Read Integral(NoXCTest) Pop=Regular MaxDisk=500GB Guess=Read IOp(5
 /15=2)
 ----------------------------------------------------------------------

 ---
 CoH
 ---
 Symbolic Z-matrix:
 Charge =  0 Multiplicity = 3

                         Standard orientation:
 ---------------------------------------------------------------------
 Center     Atomic      Atomic             Coordinates (Angstroms)
 Number     Number       Type             X           Y           Z
 ---------------------------------------------------------------------
      1         27           0        0.000000    0.000000    0.042857
      2          1           0        0.000000    0.000000   -1.157143
 ---------------------------------------------------------------------

 SCF Done:  E(ROHF) =  -145.358551930     A.U. after   30 cycles
 E2 =    -0.9427222803D+00 EUMP2 =    -0.14630127421056D+03
 CCSD(T)
 CCSD(T)= -0.14627891719D+03

 Unable to determine electronic state:  partially filled degenerate orbitals.
 Alpha  occ. eigenvalues --   -4.40744  -2.92866  -2.92364  -2.92364  -0.51820
 Alpha  occ. eigenvalues --   -0.48847  -0.45066  -0.45066  -0.44236  -0.30864
 Alpha virt. eigenvalues --    0.00710   0.02461   0.02461   0.02848   0.05561
 Alpha virt. eigenvalues --    0.07015   0.07403   0.07416   0.07539   0.07539
 Alpha virt. eigenvalues --    0.08435   0.08435   0.09779   0.18965   0.20984

 Mulliken charges and spin densities:
               1          2
     1  Co   0.490788   1.998701
     2  H   -0.490788   0.001299
 Sum of Mulliken charges =  -0.00000   2.00000

 Dipole moment (field-independent basis, Debye):
    X=              0.0000    Y=              0.0000    Z=              3.6319  Tot=              3.6319
 Quadrupole moment (field-independent basis, Debye-Ang):
   XX=            -13.9276   YY=            -13.9276   ZZ=            -16.1255
   XY=              0.0000   XZ=              0.0000   YZ=              0.0000

 \\#P ROCCSD(T)=(MaxCyc=150, Full)/Gen SCF=(maxcycle=400, vshift=200) P
 \PMP2-0=-146.3012742\MP4SDQ=-146.2713476\CCSD=-146.2446198\CCSD(T)=-14
 Normal termination of Gaussian 16 at Sat Apr 21 23:37:23 2018.
