 Gaussian 16, Revision A.03,
 Gaussian 16:  ES64L-G16RevA.03 25-Dec-2016

 ----------------------------------------------------------------------
 #P ROCCSD(T)=(MaxCyc=150, Full)/Gen SCF=(maxcycle=400, vshift=200) Pse
 udo=Read Integral(NoXCTest) Pop=Regular MaxDisk=500GB Guess=Read IOp(5
 /15=2)
 ----------------------------------------------------------------------

 ---
 CoH
 ---
 Symbolic Z-matrix:
 Charge =  0 Multiplicity = 3

                         Standard orientation:
 ---------------------------------------------------------------------
 Center     Atomic      Atomic             Coordinates (Angstroms)
 Number     Number       Type             X           Y           Z
 ---------------------------------------------------------------------
      1         27           0        0.000000    0.000000    0.042857
      2          1           0        0.000000    0.000000   -1.157143
 ---------------------------------------------------------------------

 SCF Done:  E(ROHF) =  -145.356820418     A.U. after   43 cycles
 E2 =    -0.9014197678D+00 EUMP2 =    -0.14625824018561D+03
 CCSD(T)
 CCSD(T)= -0.14623748813D+03

 Unable to determine electronic state:  partially filled degenerate orbitals.
 Alpha  occ. eigenvalues --   -4.40786  -2.92885  -2.92385  -2.92385  -0.51812
 Alpha  occ. eigenvalues --   -0.48844  -0.45058  -0.45058  -0.44231  -0.30864
 Alpha virt. eigenvalues --    0.00755   0.02694   0.02694   0.03102   0.05753
 Alpha virt. eigenvalues --    0.09243   0.09243   0.10260   0.11427   0.11457
 Alpha virt. eigenvalues --    0.11468   0.11519   0.11519   0.18691   0.26398

 Mulliken charges and spin densities:
               1          2
     1  Co   0.310214   1.970228
     2  H   -0.310214   0.029772
 Sum of Mulliken charges =  -0.00000   2.00000

 Dipole moment (field-independent basis, Debye):
    X=              0.0000    Y=              0.0000    Z=              3.6325  Tot=              3.6325
 Quadrupole moment (field-independent basis, Debye-Ang):
   XX=            -13.9394   YY=            -13.9394   ZZ=            -16.1289
   XY=              0.0000   XZ=              0.0000   YZ=              0.0000

 \\#P ROCCSD(T)=(MaxCyc=150, Full)/Gen SCF=(maxcycle=400, vshift=200) P
 \PMP2-0=-146.2582402\MP4SDQ=-146.2321409\CCSD=-146.2047995\CCSD(T)=-14
 Normal termination of Gaussian 16 at Sat Apr 21 22:51:40 2018.
