 Gaussian 16, Revision A.03,
 Gaussian 16:  ES64L-G16RevA.03 25-Dec-2016

 ----------------------------------------------------------------------
 #P ROCCSD(T)=(MaxCyc=150, Full)/Gen SCF=(maxcycle=400, vshift=200) Pse
 udo=Read Integral(NoXCTest) Pop=Regular MaxDisk=500GB Guess=Read IOp(5
 /15=2)
 ----------------------------------------------------------------------

 ---
 CoH
 ---
 Symbolic Z-matrix:
 Charge =  0 Multiplicity = 3

                         Standard orientation:
 ---------------------------------------------------------------------
 Center     Atomic      Atomic             Coordinates (Angstroms)
 Number     Number       Type             X           Y           Z
 ---------------------------------------------------------------------
      1         27           0        0.000000    0.000000    0.042857
      2          1           0        0.000000    0.000000   -1.157143
 ---------------------------------------------------------------------

 SCF Done:  E(ROHF) =  -145.359032907     A.U. after   25 cycles
 E2 =    -0.9626100466D+00 EUMP2 =    -0.14632164295330D+03
 CCSD(T)
 CCSD(T)= -0.14629704245D+03

 Unable to determine electronic state:  partially filled degenerate orbitals.
 Alpha  occ. eigenvalues --   -4.40758  -2.92864  -2.92363  -2.92363  -0.51818
 Alpha  occ. eigenvalues --   -0.48845  -0.45073  -0.45073  -0.44241  -0.30863
 Alpha virt. eigenvalues --    0.00611   0.02383   0.02383   0.02554   0.04781
 Alpha virt. eigenvalues --    0.06535   0.06689   0.06699   0.06858   0.06858
 Alpha virt. eigenvalues --    0.08041   0.08041   0.08492   0.14732   0.19009

 Mulliken charges and spin densities:
               1          2
     1  Co   0.384878   1.953861
     2  H   -0.384878   0.046139
 Sum of Mulliken charges =  -0.00000   2.00000

 Dipole moment (field-independent basis, Debye):
    X=              0.0000    Y=              0.0000    Z=              3.6311  Tot=              3.6311
 Quadrupole moment (field-independent basis, Debye-Ang):
   XX=            -13.9270   YY=            -13.9270   ZZ=            -16.1258
   XY=              0.0000   XZ=              0.0000   YZ=              0.0000

 \\#P ROCCSD(T)=(MaxCyc=150, Full)/Gen SCF=(maxcycle=400, vshift=200) P
 P2-0=-146.321643\MP4SDQ=-146.2884878\CCSD=-146.2621453\CCSD(T)=-146.29
 Normal termination of Gaussian 16 at Sat Apr 28 21:07:09 2018.
