 Gaussian 16, Revision A.03,
 Gaussian 16:  ES64L-G16RevA.03 25-Dec-2016

 ----------------------------------------------------------------------
 #P ROCCSD(T)=(maxcyc=150, Full, SaveAmplitudes, ReadAmplitudes)/Gen 5d
  7f SCF=(maxcycles=300) Integral(NoXCTest) MaxDisk=500GB Pop=Regular P
 seudo=Read Guess=Read
 ----------------------------------------------------------------------

 ---
 TiO
 ---
 Symbolic Z-matrix:
 Charge =  0 Multiplicity = 3

                         Standard orientation:
 ---------------------------------------------------------------------
 Center     Atomic      Atomic             Coordinates (Angstroms)
 Number     Number       Type             X           Y           Z
 ---------------------------------------------------------------------
      1         22           0        0.000000    0.000000    0.453333
      2          8           0        0.000000    0.000000   -1.246667
 ---------------------------------------------------------------------

 SCF Done:  E(ROHF) =  -73.3964072951     A.U. after   21 cycles
 E2 =    -0.7774965065D+00 EUMP2 =    -0.74173903801598D+02
 CCSD(T)
 CCSD(T)= -0.74203891547D+02

 Unable to determine electronic state:  an orbital has unidentified symmetry.
 Alpha  occ. eigenvalues --   -3.04622  -1.93410  -1.93410  -1.90427  -1.15452
 Alpha  occ. eigenvalues --   -0.48285  -0.45065  -0.42101  -0.42101  -0.27545
 Alpha virt. eigenvalues --   -0.00036  -0.00036   0.01121   0.02263   0.03380
 Alpha virt. eigenvalues --    0.03380   0.03647   0.03737   0.04148   0.04239
 Alpha virt. eigenvalues --    0.04239   0.04717   0.08289   0.10178   0.11414

 Mulliken charges and spin densities:
               1          2
     1  Ti   1.025306   1.972966
     2  O   -1.025306   0.027034
 Sum of Mulliken charges =  -0.00000   2.00000

 Dipole moment (field-independent basis, Debye):
    X=              0.0000    Y=              0.0000    Z=              5.1311  Tot=              5.1311
 Quadrupole moment (field-independent basis, Debye-Ang):
   XX=            -21.5215   YY=            -21.5215   ZZ=            -29.7175
   XY=              0.0000   XZ=              0.0000   YZ=              0.0000

 \\#P ROCCSD(T)=(maxcyc=150, Full, SaveAmplitudes, ReadAmplitudes)/Gen
 -0=-74.1739038\CCSD=-74.1539547\CCSD(T)=-74.2038915\RMSD=7.865e-10\PG=
 Normal termination of Gaussian 16 at Sun Mar 11 07:26:25 2018.
