 Gaussian 16, Revision A.03,
 Gaussian 16:  ES64L-G16RevA.03 25-Dec-2016

 ----------------------------------------------------------------------
 #P ROCCSD(T)=(MaxCyc=150, Full)/Gen SCF=(maxcycle=400) Pseudo=Read Int
 egral(NoXCTest) Pop=Regular MaxDisk=500GB Guess=Read IOp(5/15=2)
 ----------------------------------------------------------------------

 ---
 ZnO
 ---
 Symbolic Z-matrix:
 Charge =  0 Multiplicity = 1

                         Standard orientation:
 ---------------------------------------------------------------------
 Center     Atomic      Atomic             Coordinates (Angstroms)
 Number     Number       Type             X           Y           Z
 ---------------------------------------------------------------------
      1         30           0        0.000000    0.000000    0.378947
      2          8           0        0.000000    0.000000   -1.421053
 ---------------------------------------------------------------------

 SCF Done:  E(ROHF) =  -241.665161794     A.U. after    1 cycles
 E2 =    -0.1337125751D+01 EUMP2 =    -0.24300228754493D+03
 CCSD(T)
 CCSD(T)= -0.24295629496D+03

 The electronic state is 1-SG.
 Alpha  occ. eigenvalues --   -5.60113  -3.89493  -3.89481  -3.89481  -1.14437
 Alpha  occ. eigenvalues --   -0.81966  -0.81966  -0.81692  -0.81692  -0.80303
 Alpha  occ. eigenvalues --   -0.41137  -0.41137  -0.36468
 Alpha virt. eigenvalues --   -0.04719   0.02509   0.02509   0.02637   0.04618
 Alpha virt. eigenvalues --    0.08517   0.08517   0.13217   0.17390   0.21814
 Alpha virt. eigenvalues --    0.23330   0.23330   0.24636   0.24636   0.29755

 Mulliken charges and spin densities:
               1          2
     1  Zn   0.910537   0.000000
     2  O   -0.910537   0.000000
 Sum of Mulliken charges =  -0.00000   0.00000

 Dipole moment (field-independent basis, Debye):
    X=              0.0000    Y=              0.0000    Z=              6.7569  Tot=              6.7569
 Quadrupole moment (field-independent basis, Debye-Ang):
   XX=            -18.2151   YY=            -18.2151   ZZ=            -21.7859
   XY=              0.0000   XZ=              0.0000   YZ=              0.0000

 P ROCCSD(T)=(MaxCyc=150, Full)/Gen SCF=(maxcycle=400) Pseudo=Read Inte
 2-0=-243.0022875\MP4SDQ=-242.9449871\CCSD=-242.9076923\CCSD(T)=-242.95
 Normal termination of Gaussian 16 at Tue Mar 27 11:36:31 2018.
