 Gaussian 16, Revision A.03,
 Gaussian 16:  ES64L-G16RevA.03 25-Dec-2016

 ----------------------------------------------------------------------
 #P ROCCSD(T)=(MaxCyc=150, Full)/Gen SCF=(maxcycle=400) Pseudo=Read Int
 egral(NoXCTest) Pop=Regular MaxDisk=500GB Guess=Read IOp(5/15=2)
 ----------------------------------------------------------------------

 ---
 ZnO
 ---
 Symbolic Z-matrix:
 Charge =  0 Multiplicity = 1

                         Standard orientation:
 ---------------------------------------------------------------------
 Center     Atomic      Atomic             Coordinates (Angstroms)
 Number     Number       Type             X           Y           Z
 ---------------------------------------------------------------------
      1         30           0        0.000000    0.000000    0.378947
      2          8           0        0.000000    0.000000   -1.421053
 ---------------------------------------------------------------------

 SCF Done:  E(ROHF) =  -241.668296965     A.U. after   11 cycles
 E2 =    -0.1404539161D+01 EUMP2 =    -0.24307283612528D+03
 CCSD(T)
 CCSD(T)= -0.24302436639D+03

 The electronic state is 1-SG.
 Alpha  occ. eigenvalues --   -5.60072  -3.89462  -3.89455  -3.89455  -1.14399
 Alpha  occ. eigenvalues --   -0.81955  -0.81955  -0.81686  -0.81686  -0.80288
 Alpha  occ. eigenvalues --   -0.41150  -0.41150  -0.36448
 Alpha virt. eigenvalues --   -0.04704   0.02293   0.02293   0.02410   0.04147
 Alpha virt. eigenvalues --    0.07443   0.07443   0.11797   0.16466   0.17241
 Alpha virt. eigenvalues --    0.17760   0.17760   0.20218   0.20218   0.23192

 Mulliken charges and spin densities:
               1          2
     1  Zn   0.856439   0.000000
     2  O   -0.856439   0.000000
 Sum of Mulliken charges =  -0.00000   0.00000

 Dipole moment (field-independent basis, Debye):
    X=              0.0000    Y=              0.0000    Z=              6.7436  Tot=              6.7436
 Quadrupole moment (field-independent basis, Debye-Ang):
   XX=            -18.2019   YY=            -18.2019   ZZ=            -21.7870
   XY=              0.0000   XZ=              0.0000   YZ=              0.0000

 P ROCCSD(T)=(MaxCyc=150, Full)/Gen SCF=(maxcycle=400) Pseudo=Read Inte
 0=-243.0728361\MP4SDQ=-243.0097875\CCSD=-242.9732044\CCSD(T)=-243.0243
 Normal termination of Gaussian 16 at Tue Mar 27 13:55:13 2018.
