 Gaussian 16, Revision A.03,
 Gaussian 16:  ES64L-G16RevA.03 25-Dec-2016

 ----------------------------------------------------------------------
 #P ROCCSD(T)=(MaxCyc=150, Full)/Gen SCF=(maxcycle=400, vshift=200) Int
 egral(DKHSO, NoXCTest) Pop=Regular MaxDisk=500GB Guess=Read IOp(5/15=2
 )
 ----------------------------------------------------------------------

 ---
 ZnH
 ---
 Symbolic Z-matrix:
 Charge =  0 Multiplicity = 2

                         Standard orientation:
 ---------------------------------------------------------------------
 Center     Atomic      Atomic             Coordinates (Angstroms)
 Number     Number       Type             X           Y           Z
 ---------------------------------------------------------------------
      1         30           0        0.000000    0.000000    0.051613
      2          1           0        0.000000    0.000000   -1.548387
 ---------------------------------------------------------------------

 SCF Done:  E(ROHF) =  -1794.80289141     A.U. after    1 cycles
 E2 =    -0.1475328388D+01 EUMP2 =    -0.17962782197968D+04
 CCSD(T)
 CCSD(T)= -0.17962044632D+04

 The electronic state is 2-SG.
 Alpha  occ. eigenvalues -- -357.59422 -45.36150 -39.16458 -39.16458 -39.16346
 Alpha  occ. eigenvalues --   -5.83152  -3.91070  -3.91070  -3.90971  -0.79887
 Alpha  occ. eigenvalues --   -0.79887  -0.79822  -0.79400  -0.79400  -0.45683
 Alpha  occ. eigenvalues --   -0.27816
 Alpha virt. eigenvalues --    0.02068   0.02068   0.02909   0.03906   0.07661
 Alpha virt. eigenvalues --    0.07661   0.08826   0.15865   0.18137   0.24122
 Alpha virt. eigenvalues --    0.24122   0.24956   0.24956   0.25425   0.29407

 Mulliken charges and spin densities:
               1          2
     1  Zn   0.330599   0.930759
     2  H   -0.330599   0.069241
 Sum of Mulliken charges =   0.00000   1.00000

 Dipole moment (field-independent basis, Debye):
    X=              0.0000    Y=              0.0000    Z=              0.7825  Tot=              0.7825
 Quadrupole moment (field-independent basis, Debye-Ang):
   XX=            -14.8097   YY=            -14.8097   ZZ=            -21.4123
   XY=              0.0000   XZ=              0.0000   YZ=              0.0000

 \\#P ROCCSD(T)=(MaxCyc=150, Full)/Gen SCF=(maxcycle=400, vshift=200) I
 4\CCSD(T)=-1796.2044632\RMSD=6.167e-09\PG=C*V [C*(H1Zn1)]\\@
 Normal termination of Gaussian 16 at Sat Apr 21 10:41:37 2018.
