 Gaussian 16, Revision A.03,
 Gaussian 16:  ES64L-G16RevA.03 25-Dec-2016

 ----------------------------------------------------------------------
 #P ROCCSD(T)=(maxcyc=100, Full)/Gen SCF=(maxcycle=400, symm) Pseudo=Re
 ad Integral(NoXCTest) Pop=Regular MaxDisk=500GB Guess=Permute IOp(5/15
 =2)
 ----------------------------------------------------------------------

 ---
 FeH
 ---
 Symbolic Z-matrix:
 Charge =  0 Multiplicity = 4

                         Standard orientation:
 ---------------------------------------------------------------------
 Center     Atomic      Atomic             Coordinates (Angstroms)
 Number     Number       Type             X           Y           Z
 ---------------------------------------------------------------------
      1         26           0        0.000000    0.000000    0.044444
      2          1           0        0.000000    0.000000   -1.155556
 ---------------------------------------------------------------------

 SCF Done:  E(ROHF) =  -123.533099873     A.U. after   27 cycles
 E2 =    -0.7781201138D+00 EUMP2 =    -0.12431121998645D+03
 CCSD(T)
 CCSD(T)= -0.12430594872D+03

 Unable to determine electronic state:  an orbital has unidentified symmetry.
 Alpha  occ. eigenvalues --   -4.34308  -2.83318  -2.80923  -2.80923  -0.55550
 Alpha  occ. eigenvalues --   -0.55550  -0.54895  -0.53059  -0.48155  -0.30594
 Alpha virt. eigenvalues --    0.00527   0.02476   0.02476   0.02848   0.04808
 Alpha virt. eigenvalues --    0.08300   0.08300   0.09556   0.10256   0.10256
 Alpha virt. eigenvalues --    0.10335   0.10369   0.10531   0.16517   0.25163

 Mulliken charges and spin densities:
               1          2
     1  Fe   0.298343   2.991431
     2  H   -0.298343   0.008569
 Sum of Mulliken charges =   0.00000   3.00000

 Dipole moment (field-independent basis, Debye):
    X=              0.0000    Y=              0.0000    Z=              3.0236  Tot=              3.0236
 Quadrupole moment (field-independent basis, Debye-Ang):
   XX=            -16.5850   YY=            -16.5850   ZZ=            -15.8240
   XY=              0.0000   XZ=              0.0000   YZ=              0.0000

 \\#P ROCCSD(T)=(maxcyc=100, Full)/Gen SCF=(maxcycle=400, symm) Pseudo=
 3\CCSD(T)=-124.3059487\RMSD=6.009e-09\PG=C*V [C*(H1Fe1)]\\@
 Normal termination of Gaussian 16 at Mon Feb 12 21:38:55 2018.
