 Gaussian 16, Revision A.03,
 Gaussian 16:  ES64L-G16RevA.03 25-Dec-2016

 ----------------------------------------------------------------------
 #P ROCCSD(T)=(maxcyc=100, Full)/Gen SCF=(maxcycle=400, symm) Pseudo=Re
 ad Integral(NoXCTest) Pop=Regular MaxDisk=500GB Guess=Permute IOp(5/15
 =2)
 ----------------------------------------------------------------------

 ---
 FeH
 ---
 Symbolic Z-matrix:
 Charge =  0 Multiplicity = 4

                         Standard orientation:
 ---------------------------------------------------------------------
 Center     Atomic      Atomic             Coordinates (Angstroms)
 Number     Number       Type             X           Y           Z
 ---------------------------------------------------------------------
      1         26           0        0.000000    0.000000    0.044444
      2          1           0        0.000000    0.000000   -1.155556
 ---------------------------------------------------------------------

 SCF Done:  E(ROHF) =  -123.534347930     A.U. after   28 cycles
 E2 =    -0.8135451693D+00 EUMP2 =    -0.12434789309892D+03
 CCSD(T)
 CCSD(T)= -0.12434073971D+03

 Unable to determine electronic state:  partially filled degenerate orbitals.
 Alpha  occ. eigenvalues --   -4.34304  -2.83305  -2.80913  -2.80913  -0.55549
 Alpha  occ. eigenvalues --   -0.55549  -0.54898  -0.53059  -0.48157  -0.30593
 Alpha virt. eigenvalues --    0.00493   0.02268   0.02268   0.02595   0.04664
 Alpha virt. eigenvalues --    0.06264   0.06807   0.06807   0.06861   0.06872
 Alpha virt. eigenvalues --    0.07509   0.07509   0.09219   0.17220   0.18189

 Mulliken charges and spin densities:
               1          2
     1  Fe   0.315244   2.991362
     2  H   -0.315244   0.008638
 Sum of Mulliken charges =  -0.00000   3.00000

 Dipole moment (field-independent basis, Debye):
    X=              0.0000    Y=              0.0000    Z=              3.0210  Tot=              3.0210
 Quadrupole moment (field-independent basis, Debye-Ang):
   XX=            -16.5775   YY=            -16.5775   ZZ=            -15.8270
   XY=              0.0000   XZ=              0.0000   YZ=              0.0000

 \\#P ROCCSD(T)=(maxcyc=100, Full)/Gen SCF=(maxcycle=400, symm) Pseudo=
 3102417\CCSD(T)=-124.3407397\RMSD=9.710e-09\PG=C*V [C*(H1Fe1)]\\@
 Normal termination of Gaussian 16 at Mon Feb 12 22:15:36 2018.
