 Gaussian 16, Revision A.03,
 Gaussian 16:  ES64L-G16RevA.03 25-Dec-2016

 ----------------------------------------------------------------------
 #P ROCCSD(T)=(maxcyc=100, Full)/Gen SCF=(maxcycle=400, symm) Pseudo=Re
 ad Integral(NoXCTest) Pop=Regular MaxDisk=500GB Guess=Permute IOp(5/15
 =2)
 ----------------------------------------------------------------------

 ---
 FeH
 ---
 Symbolic Z-matrix:
 Charge =  0 Multiplicity = 4

                         Standard orientation:
 ---------------------------------------------------------------------
 Center     Atomic      Atomic             Coordinates (Angstroms)
 Number     Number       Type             X           Y           Z
 ---------------------------------------------------------------------
      1         26           0        0.000000    0.000000    0.044444
      2          1           0        0.000000    0.000000   -1.155556
 ---------------------------------------------------------------------

 SCF Done:  E(ROHF) =  -123.534529696     A.U. after   29 cycles
 E2 =    -0.8277793312D+00 EUMP2 =    -0.12436230902750D+03
 CCSD(T)
 CCSD(T)= -0.12435318858D+03

 Unable to determine electronic state:  partially filled degenerate orbitals.
 Alpha  occ. eigenvalues --   -4.34303  -2.83301  -2.80909  -2.80909  -0.55547
 Alpha  occ. eigenvalues --   -0.55547  -0.54899  -0.53055  -0.48159  -0.30593
 Alpha virt. eigenvalues --    0.00431   0.02204   0.02204   0.02327   0.03993
 Alpha virt. eigenvalues --    0.05930   0.06259   0.06259   0.06284   0.06293
 Alpha virt. eigenvalues --    0.07186   0.07186   0.08100   0.12967   0.17442

 Mulliken charges and spin densities:
               1          2
     1  Fe   0.302401   2.989218
     2  H   -0.302401   0.010782
 Sum of Mulliken charges =  -0.00000   3.00000

 Dipole moment (field-independent basis, Debye):
    X=              0.0000    Y=              0.0000    Z=              3.0211  Tot=              3.0211
 Quadrupole moment (field-independent basis, Debye-Ang):
   XX=            -16.5760   YY=            -16.5760   ZZ=            -15.8280
   XY=              0.0000   XZ=              0.0000   YZ=              0.0000

 \\#P ROCCSD(T)=(maxcyc=100, Full)/Gen SCF=(maxcycle=400, symm) Pseudo=
 2192\CCSD(T)=-124.3531886\RMSD=5.877e-09\PG=C*V [C*(H1Fe1)]\\@
 Normal termination of Gaussian 16 at Mon Feb 12 23:54:08 2018.
