 Gaussian 16, Revision A.03,
 Gaussian 16:  ES64L-G16RevA.03 25-Dec-2016

 ----------------------------------------------------------------------
 #P ROCCSD(T)=(maxcyc=150, FrzINGC)/Gen 5d 7f SCF=(maxcycles=300, NoVar
 Acc, VShift=200) Integral(NoXCTest, DKHSO) MaxDisk=100GB Pop=Regular G
 uess=Read
 ----------------------------------------------------------------------

 --
 Ti
 --
 Symbolic Z-matrix:
 Charge =  0 Multiplicity = 3

                         Standard orientation:
 ---------------------------------------------------------------------
 Center     Atomic      Atomic             Coordinates (Angstroms)
 Number     Number       Type             X           Y           Z
 ---------------------------------------------------------------------
      1         22           0        0.000000    0.000000    0.000000
 ---------------------------------------------------------------------

 SCF Done:  E(ROHF) =  -852.750758694     A.U. after   10 cycles
 E2 =    -0.4071233631D+00 EUMP2 =    -0.85315788205706D+03
 CCSD(T)
 CCSD(T)= -0.85319046203D+03

 Unable to determine electronic state:  an orbital has unidentified symmetry.
 Alpha  occ. eigenvalues -- -184.40160 -21.66528 -17.83254 -17.83254 -17.83254
 Alpha  occ. eigenvalues --   -2.96739  -1.87509  -1.87509  -1.87509  -0.43418
 Alpha  occ. eigenvalues --   -0.43418  -0.23031
 Alpha virt. eigenvalues --    0.01380   0.01380   0.01380   0.02236   0.03898
 Alpha virt. eigenvalues --    0.03898   0.03898   0.03945   0.03945   0.04819
 Alpha virt. eigenvalues --    0.04819   0.04819   0.10365   0.10365   0.10365

 Mulliken charges and spin densities:
               1          2
     1  Ti  -0.000000   2.000000
 Sum of Mulliken charges =  -0.00000   2.00000

 Dipole moment (field-independent basis, Debye):
    X=              0.0000    Y=             -0.0000    Z=             -0.0000  Tot=              0.0000
 Quadrupole moment (field-independent basis, Debye-Ang):
   XX=            -22.3107   YY=            -22.3107   ZZ=            -22.3107
   XY=             -0.0000   XZ=             -0.0000   YZ=             -0.0000

 P ROCCSD(T)=(maxcyc=150, FrzINGC)/Gen 5d 7f SCF=(maxcycles=300, NoVarA
 78821\MP4SDQ=-853.1753978\CCSD=-853.1758282\CCSD(T)=-853.190462\RMSD=8
 Normal termination of Gaussian 16 at Mon Mar 12 17:48:35 2018.
