 Gaussian 16, Revision A.03,
 Gaussian 16:  ES64L-G16RevA.03 25-Dec-2016

 ----------------------------------------------------------------------
 #P ROCCSD(T)=(maxcyc=150, Full, SaveAmplitudes, ReadAmplitudes)/Gen 5d
  7f SCF=(maxcycles=300) Integral(NoXCTest) MaxDisk=500GB Pop=Regular P
 seudo=Read Guess=Read IOp(5/15=2)
 ----------------------------------------------------------------------

 ---
 TiO
 ---
 Symbolic Z-matrix:
 Charge =  0 Multiplicity = 3

                         Standard orientation:
 ---------------------------------------------------------------------
 Center     Atomic      Atomic             Coordinates (Angstroms)
 Number     Number       Type             X           Y           Z
 ---------------------------------------------------------------------
      1         22           0        0.000000    0.000000    0.506667
      2          8           0        0.000000    0.000000   -1.393333
 ---------------------------------------------------------------------

 SCF Done:  E(ROHF) =  -73.3549871689     A.U. after   23 cycles
 E2 =    -0.7567294101D+00 EUMP2 =    -0.74111716578986D+02
 CCSD(T)
 CCSD(T)= -0.74149503176D+02

 Unable to determine electronic state:  an orbital has unidentified symmetry.
 Alpha  occ. eigenvalues --   -3.08665  -1.97950  -1.97950  -1.93341  -1.12355
 Alpha  occ. eigenvalues --   -0.52711  -0.41390  -0.37379  -0.37379  -0.29782
 Alpha virt. eigenvalues --   -0.00951  -0.00951   0.00032   0.01959   0.03323
 Alpha virt. eigenvalues --    0.03323   0.03718   0.04456   0.05027   0.05950
 Alpha virt. eigenvalues --    0.05950   0.06101   0.07485   0.10472   0.10472

 Mulliken charges and spin densities:
               1          2
     1  Ti   0.962110   1.986048
     2  O   -0.962110   0.013952
 Sum of Mulliken charges =  -0.00000   2.00000

 Dipole moment (field-independent basis, Debye):
    X=              0.0000    Y=              0.0000    Z=              7.0391  Tot=              7.0391
 Quadrupole moment (field-independent basis, Debye-Ang):
   XX=            -21.7242   YY=            -21.7242   ZZ=            -30.6771
   XY=              0.0000   XZ=              0.0000   YZ=              0.0000

 \\#P ROCCSD(T)=(maxcyc=150, Full, SaveAmplitudes, ReadAmplitudes)/Gen
 .0922605\CCSD(T)=-74.1495032\RMSD=4.554e-09\PG=C*V [C*(O1Ti1)]\\@
 Normal termination of Gaussian 16 at Sat Mar 10 02:23:45 2018.
