 Gaussian 16, Revision A.03,
 Gaussian 16:  ES64L-G16RevA.03 25-Dec-2016

 ----------------------------------------------------------------------
 #P ROCCSD(T)=(maxcyc=150, Full, SaveAmplitudes, ReadAmplitudes)/Gen 5d
  7f SCF=(maxcycles=300, VShift=400) Integral(NoXCTest) MaxDisk=500GB P
 op=Full Pseudo=Read Guess=Read
 ----------------------------------------------------------------------

 ---
 ScH
 ---
 Symbolic Z-matrix:
 Charge =  0 Multiplicity = 1

                         Standard orientation:
 ---------------------------------------------------------------------
 Center     Atomic      Atomic             Coordinates (Angstroms)
 Number     Number       Type             X           Y           Z
 ---------------------------------------------------------------------
      1         21           0        0.000000    0.000000    0.077273
      2          1           0        0.000000    0.000000   -1.622727
 ---------------------------------------------------------------------

 SCF Done:  E(ROHF) =  -46.6750425905     A.U. after   19 cycles
 E2 =    -0.4227035496D+00 EUMP2 =    -0.47097746140114D+02
 CCSD(T)
 CCSD(T)= -0.47140567624D+02

 The electronic state is 1-SG.
 Alpha  occ. eigenvalues --   -2.67469  -1.66192  -1.66032  -1.66032  -0.41755
 Alpha  occ. eigenvalues --   -0.22886
 Alpha virt. eigenvalues --    0.01142   0.01142   0.01516   0.01928   0.02858
 Alpha virt. eigenvalues --    0.02858   0.02917   0.02917   0.02938   0.04131
 Alpha virt. eigenvalues --    0.04131   0.04298   0.07465   0.07465   0.07897

 Mulliken charges and spin densities:
               1          2
     1  Sc   0.272830   0.000000
     2  H   -0.272830   0.000000
 Sum of Mulliken charges =  -0.00000   0.00000

 Dipole moment (field-independent basis, Debye):
    X=              0.0000    Y=              0.0000    Z=              1.2076  Tot=              1.2076
 Quadrupole moment (field-independent basis, Debye-Ang):
   XX=            -23.1476   YY=            -23.1476   ZZ=            -26.0715
   XY=              0.0000   XZ=              0.0000   YZ=              0.0000

 P ROCCSD(T)=(maxcyc=150, Full, SaveAmplitudes, ReadAmplitudes)/Gen 5d
 =-46.6750426\PMP2-0=-47.0977461\CCSD=-47.121426\CCSD(T)=-47.1405676\RM
 Normal termination of Gaussian 16 at Thu Apr 19 08:09:31 2018.
