 Gaussian 16, Revision A.03,
 Gaussian 16:  ES64L-G16RevA.03 25-Dec-2016

 ----------------------------------------------------------------------
 #P ROCCSD(T)=(maxcyc=150, Full, SaveAmplitudes, ReadAmplitudes)/Gen 5d
  7f SCF=(maxcycles=300) Integral(NoXCTest, DKHSO) MaxDisk=500GB Pop=Re
 gular Guess=Read IOp(5/15=2)
 ----------------------------------------------------------------------

 ---
 CrO
 ---
 Symbolic Z-matrix:
 Charge =  0 Multiplicity = 5

                         Standard orientation:
 ---------------------------------------------------------------------
 Center     Atomic      Atomic             Coordinates (Angstroms)
 Number     Number       Type             X           Y           Z
 ---------------------------------------------------------------------
      1         24           0        0.000000    0.000000    0.350000
      2          8           0        0.000000    0.000000   -1.050000
 ---------------------------------------------------------------------

 SCF Done:  E(ROHF) =  -1124.46175448     A.U. after   31 cycles
 E2 =    -0.1314145655D+01 EUMP2 =    -0.11257759001377D+04
 CCSD(T)
 CCSD(T)= -0.11257815969D+04

 Unable to determine electronic state:  an orbital has unidentified symmetry.
 Alpha  occ. eigenvalues -- -222.24947 -26.84531 -22.47904 -22.47813 -22.47379
 Alpha  occ. eigenvalues --  -20.54049  -3.68783  -2.44913  -2.41322  -2.41279
 Alpha  occ. eigenvalues --   -1.22274  -0.65214  -0.56816  -0.53605  -0.53388
 Alpha  occ. eigenvalues --   -0.51938  -0.38406  -0.28561
 Alpha virt. eigenvalues --    0.01082   0.01886   0.02187   0.03057   0.04950
 Alpha virt. eigenvalues --    0.05916   0.06789   0.07669   0.07675   0.07973
 Alpha virt. eigenvalues --    0.08502   0.09225   0.12566   0.15996   0.17919

 Mulliken charges and spin densities:
               1          2
     1  Cr   0.957636   3.800228
     2  O   -0.957636   0.199772
 Sum of Mulliken charges =  -0.00000   4.00000

 Dipole moment (field-independent basis, Debye):
    X=             -0.0000    Y=             -0.0000    Z=              3.0905  Tot=              3.0905
 Quadrupole moment (field-independent basis, Debye-Ang):
   XX=            -21.3882   YY=            -20.1066   ZZ=            -24.6121
   XY=              0.0000   XZ=              0.0000   YZ=              0.0000

 \\#P ROCCSD(T)=(maxcyc=150, Full, SaveAmplitudes, ReadAmplitudes)/Gen
 SD=-1125.7355116\CCSD(T)=-1125.7815969\RMSD=9.358e-09\PG=C*V [C*(O1Cr1
 Normal termination of Gaussian 16 at Wed Mar  7 01:26:27 2018.
