 Gaussian 16, Revision A.03,
 Gaussian 16:  ES64L-G16RevA.03 25-Dec-2016

 ----------------------------------------------------------------------
 #P ROCCSD(T)=(MaxCyc=150, Full)/Gen SCF=(maxcycle=400) Pseudo=Read Int
 egral(NoXCTest) Pop=Regular MaxDisk=500GB Guess=Read IOp(5/15=2)
 ----------------------------------------------------------------------

 ---
 CoO
 ---
 Symbolic Z-matrix:
 Charge =  0 Multiplicity = 4

                         Standard orientation:
 ---------------------------------------------------------------------
 Center     Atomic      Atomic             Coordinates (Angstroms)
 Number     Number       Type             X           Y           Z
 ---------------------------------------------------------------------
      1         27           0        0.000000    0.000000    0.388571
      2          8           0        0.000000    0.000000   -1.311429
 ---------------------------------------------------------------------

 SCF Done:  E(ROHF) =  -160.335207810     A.U. after   22 cycles
 E2 =    -0.1113277780D+01 EUMP2 =    -0.16144848558937D+03
 CCSD(T)
 CCSD(T)= -0.16147221118D+03

 Unable to determine electronic state:  partially filled degenerate orbitals.
 Alpha  occ. eigenvalues --   -4.84203  -3.28845  -3.28761  -3.28761  -1.15377
 Alpha  occ. eigenvalues --   -0.76576  -0.76576  -0.75954  -0.70908  -0.68461
 Alpha  occ. eigenvalues --   -0.38115  -0.38115  -0.35786
 Alpha virt. eigenvalues --   -0.05119   0.01718   0.01718   0.01899   0.03759
 Alpha virt. eigenvalues --    0.06660   0.06660   0.07069   0.07078   0.07094
 Alpha virt. eigenvalues --    0.08229   0.08229   0.12532   0.14328   0.20938

 Mulliken charges and spin densities:
               1          2
     1  Co   1.001200   2.931807
     2  O   -1.001200   0.068193
 Sum of Mulliken charges =  -0.00000   3.00000

 Dipole moment (field-independent basis, Debye):
    X=              0.0000    Y=              0.0000    Z=              8.0475  Tot=              8.0475
 Quadrupole moment (field-independent basis, Debye-Ang):
   XX=            -19.0098   YY=            -19.0098   ZZ=            -22.2259
   XY=              0.0000   XZ=              0.0000   YZ=              0.0000

 \\#P ROCCSD(T)=(MaxCyc=150, Full)/Gen SCF=(maxcycle=400) Pseudo=Read I
 .4484856\MP4SDQ=-161.4225136\CCSD=-161.4144056\CCSD(T)=-161.4722112\RM
 Normal termination of Gaussian 16 at Sat Mar 31 17:00:51 2018.
