 Gaussian 16, Revision A.03,
 Gaussian 16:  ES64L-G16RevA.03 25-Dec-2016

 ----------------------------------------------------------------------
 #P ROCCSD(T)=(MaxCyc=150, Full)/Gen SCF=(maxcycle=400) Pseudo=Read Int
 egral(NoXCTest) Pop=Regular MaxDisk=500GB Guess=Read IOp(5/15=2)
 ----------------------------------------------------------------------

 ---
 CoO
 ---
 Symbolic Z-matrix:
 Charge =  0 Multiplicity = 4

                         Standard orientation:
 ---------------------------------------------------------------------
 Center     Atomic      Atomic             Coordinates (Angstroms)
 Number     Number       Type             X           Y           Z
 ---------------------------------------------------------------------
      1         27           0        0.000000    0.000000    0.388571
      2          8           0        0.000000    0.000000   -1.311429
 ---------------------------------------------------------------------

 SCF Done:  E(ROHF) =  -160.332398369     A.U. after   23 cycles
 E2 =    -0.1061389646D+01 EUMP2 =    -0.16139378801478D+03
 CCSD(T)
 CCSD(T)= -0.16142016395D+03

 Unable to determine electronic state:  partially filled degenerate orbitals.
 Alpha  occ. eigenvalues --   -4.84215  -3.28867  -3.28780  -3.28780  -1.15417
 Alpha  occ. eigenvalues --   -0.76585  -0.76585  -0.75963  -0.70914  -0.68472
 Alpha  occ. eigenvalues --   -0.38104  -0.38104  -0.35803
 Alpha virt. eigenvalues --   -0.05128   0.02016   0.02016   0.02145   0.04185
 Alpha virt. eigenvalues --    0.07622   0.07622   0.09820   0.10712   0.10741
 Alpha virt. eigenvalues --    0.11632   0.11632   0.14809   0.15342   0.26096

 Mulliken charges and spin densities:
               1          2
     1  Co   1.039966   2.931524
     2  O   -1.039966   0.068476
 Sum of Mulliken charges =   0.00000   3.00000

 Dipole moment (field-independent basis, Debye):
    X=              0.0000    Y=              0.0000    Z=              8.0601  Tot=              8.0601
 Quadrupole moment (field-independent basis, Debye-Ang):
   XX=            -19.0133   YY=            -19.0133   ZZ=            -22.2457
   XY=              0.0000   XZ=              0.0000   YZ=              0.0000

 \\#P ROCCSD(T)=(MaxCyc=150, Full)/Gen SCF=(maxcycle=400) Pseudo=Read I
 393788\MP4SDQ=-161.373608\CCSD=-161.3646154\CCSD(T)=-161.4201639\RMSD=
 Normal termination of Gaussian 16 at Sat Mar 31 14:38:46 2018.
