 Gaussian 16, Revision A.03,
 Gaussian 16:  ES64L-G16RevA.03 25-Dec-2016

 ----------------------------------------------------------------------
 #P ROCCSD(T)=(maxcyc=150, Full)/Gen 5d 7f SCF=(maxcycles=300) Integral
 (NoXCTest) MaxDisk=500GB Pop=Regular Pseudo=Read IOp(5/15=2) Guess=Rea
 d
 ----------------------------------------------------------------------

 ---
 ScH
 ---
 Symbolic Z-matrix:
 Charge =  0 Multiplicity = 1

                         Standard orientation:
 ---------------------------------------------------------------------
 Center     Atomic      Atomic             Coordinates (Angstroms)
 Number     Number       Type             X           Y           Z
 ---------------------------------------------------------------------
      1         21           0        0.000000    0.000000    0.077273
      2          1           0        0.000000    0.000000   -1.622727
 ---------------------------------------------------------------------

 SCF Done:  E(ROHF) =  -46.7891959836     A.U. after   11 cycles
 E2 =    -0.4267826845D+00 EUMP2 =    -0.47215978668037D+02
 CCSD(T)
 CCSD(T)= -0.47258677203D+02

 The electronic state is 1-SG.
 Alpha  occ. eigenvalues --   -2.74514  -1.65250  -1.65099  -1.65099  -0.41842
 Alpha  occ. eigenvalues --   -0.22916
 Alpha virt. eigenvalues --    0.01131   0.01131   0.01554   0.01916   0.02857
 Alpha virt. eigenvalues --    0.02857   0.02916   0.02916   0.02936   0.04113
 Alpha virt. eigenvalues --    0.04113   0.04343   0.07443   0.07443   0.07880

 Mulliken charges and spin densities:
               1          2
     1  Sc   0.283764   0.000000
     2  H   -0.283764   0.000000
 Sum of Mulliken charges =  -0.00000   0.00000

 Dipole moment (field-independent basis, Debye):
    X=              0.0000    Y=              0.0000    Z=              1.1378  Tot=              1.1378
 Quadrupole moment (field-independent basis, Debye-Ang):
   XX=            -23.1277   YY=            -23.1277   ZZ=            -26.2034
   XY=              0.0000   XZ=              0.0000   YZ=              0.0000

 P ROCCSD(T)=(maxcyc=150, Full)/Gen 5d 7f SCF=(maxcycles=300) Integral(
 P2-0=-47.2159787\MP4SDQ=-47.2395744\CCSD=-47.239469\CCSD(T)=-47.258677
 Normal termination of Gaussian 16 at Wed Feb 14 03:28:00 2018.
