 Gaussian 16, Revision A.03,
 Gaussian 16:  ES64L-G16RevA.03 25-Dec-2016

 ----------------------------------------------------------------------
 #P ROCCSD(T)=(MaxCyc=150, Full)/Gen SCF=(maxcycle=400, vshift=200) Pse
 udo=Read Integral(NoXCTest) Pop=Regular MaxDisk=500GB Guess=Read IOp(5
 /15=2)
 ----------------------------------------------------------------------

 ---
 CuH
 ---
 Symbolic Z-matrix:
 Charge =  0 Multiplicity = 1

                         Standard orientation:
 ---------------------------------------------------------------------
 Center     Atomic      Atomic             Coordinates (Angstroms)
 Number     Number       Type             X           Y           Z
 ---------------------------------------------------------------------
      1         29           0        0.000000    0.000000    0.040000
      2          1           0        0.000000    0.000000   -1.160000
 ---------------------------------------------------------------------

 SCF Done:  E(ROHF) =  -195.854002174     A.U. after   11 cycles
 E2 =    -0.1179832726D+01 EUMP2 =    -0.19703383490046D+03
 CCSD(T)
 CCSD(T)= -0.19694423283D+03

 The electronic state is 1-SG.
 Alpha  occ. eigenvalues --   -5.25358  -3.42931  -3.41453  -3.41453  -0.56059
 Alpha  occ. eigenvalues --   -0.52775  -0.52775  -0.51487  -0.51487  -0.33520
 Alpha virt. eigenvalues --    0.00545   0.02594   0.02594   0.02742   0.04738
 Alpha virt. eigenvalues --    0.07862   0.08611   0.08611   0.11935   0.11935
 Alpha virt. eigenvalues --    0.12013   0.12606   0.12606   0.15162   0.18769

 Mulliken charges and spin densities:
               1          2
     1  Cu   0.295531   0.000000
     2  H   -0.295531   0.000000
 Sum of Mulliken charges =   0.00000   0.00000

 Dipole moment (field-independent basis, Debye):
    X=              0.0000    Y=              0.0000    Z=              3.3351  Tot=              3.3351
 Quadrupole moment (field-independent basis, Debye-Ang):
   XX=            -14.0223   YY=            -14.0223   ZZ=            -14.6836
   XY=              0.0000   XZ=              0.0000   YZ=              0.0000

 P ROCCSD(T)=(MaxCyc=150, Full)/Gen SCF=(maxcycle=400, vshift=200) Pseu
 Normal termination of Gaussian 16 at Sun May  6 00:36:31 2018.
