 Gaussian 16, Revision A.03,
 Gaussian 16:  ES64L-G16RevA.03 25-Dec-2016

 ----------------------------------------------------------------------
 #P ROCCSD(T)=(MaxCyc=150, Full)/Gen SCF=(maxcycle=400, vshift=200) Pse
 udo=Read Integral(NoXCTest) Pop=Regular MaxDisk=500GB Guess=Read IOp(5
 /15=2)
 ----------------------------------------------------------------------

 ---
 CuH
 ---
 Symbolic Z-matrix:
 Charge =  0 Multiplicity = 1

                         Standard orientation:
 ---------------------------------------------------------------------
 Center     Atomic      Atomic             Coordinates (Angstroms)
 Number     Number       Type             X           Y           Z
 ---------------------------------------------------------------------
      1         29           0        0.000000    0.000000    0.040000
      2          1           0        0.000000    0.000000   -1.160000
 ---------------------------------------------------------------------

 SCF Done:  E(ROHF) =  -195.851439942     A.U. after   18 cycles
 E2 =    -0.1102804169D+01 EUMP2 =    -0.19695424411120D+03
 CCSD(T)
 CCSD(T)= -0.19686834495D+03

 The electronic state is 1-SG.
 Alpha  occ. eigenvalues --   -5.25365  -3.42953  -3.41468  -3.41468  -0.56059
 Alpha  occ. eigenvalues --   -0.52768  -0.52768  -0.51478  -0.51478  -0.33517
 Alpha virt. eigenvalues --    0.00688   0.02968   0.02968   0.03322   0.06021
 Alpha virt. eigenvalues --    0.10071   0.10310   0.10310   0.17269   0.19280
 Alpha virt. eigenvalues --    0.19280   0.20584   0.20584   0.22211   0.26006

 Mulliken charges and spin densities:
               1          2
     1  Cu   0.316419   0.000000
     2  H   -0.316419   0.000000
 Sum of Mulliken charges =   0.00000   0.00000

 Dipole moment (field-independent basis, Debye):
    X=              0.0000    Y=              0.0000    Z=              3.3456  Tot=              3.3456
 Quadrupole moment (field-independent basis, Debye-Ang):
   XX=            -14.0340   YY=            -14.0340   ZZ=            -14.6682
   XY=              0.0000   XZ=              0.0000   YZ=              0.0000

 P ROCCSD(T)=(MaxCyc=150, Full)/Gen SCF=(maxcycle=400, vshift=200) Pseu
 Normal termination of Gaussian 16 at Sat May  5 21:02:10 2018.
