 Gaussian 16, Revision A.03,
 Gaussian 16:  ES64L-G16RevA.03 25-Dec-2016

 ----------------------------------------------------------------------
 #P ROCCSD(T)=(MaxCyc=150, Full)/Gen SCF=(maxcycle=400, vshift=200) Pse
 udo=Read Integral(NoXCTest) Pop=Regular MaxDisk=500GB Guess=Read IOp(5
 /15=2)
 ----------------------------------------------------------------------

 ---
 CuH
 ---
 Symbolic Z-matrix:
 Charge =  0 Multiplicity = 1

                         Standard orientation:
 ---------------------------------------------------------------------
 Center     Atomic      Atomic             Coordinates (Angstroms)
 Number     Number       Type             X           Y           Z
 ---------------------------------------------------------------------
      1         29           0        0.000000    0.000000    0.040000
      2          1           0        0.000000    0.000000   -1.160000
 ---------------------------------------------------------------------

 SCF Done:  E(ROHF) =  -195.853736181     A.U. after   11 cycles
 E2 =    -0.1154731548D+01 EUMP2 =    -0.19700846772873D+03
 CCSD(T)
 CCSD(T)= -0.19692110696D+03

 The electronic state is 1-SG.
 Alpha  occ. eigenvalues --   -5.25358  -3.42932  -3.41453  -3.41453  -0.56059
 Alpha  occ. eigenvalues --   -0.52772  -0.52772  -0.51486  -0.51486  -0.33520
 Alpha virt. eigenvalues --    0.00653   0.02683   0.02683   0.03011   0.05593
 Alpha virt. eigenvalues --    0.08979   0.08979   0.09125   0.13372   0.13372
 Alpha virt. eigenvalues --    0.13435   0.14040   0.14040   0.20326   0.22803

 Mulliken charges and spin densities:
               1          2
     1  Cu   0.298343   0.000000
     2  H   -0.298343   0.000000
 Sum of Mulliken charges =  -0.00000   0.00000

 Dipole moment (field-independent basis, Debye):
    X=              0.0000    Y=              0.0000    Z=              3.3367  Tot=              3.3367
 Quadrupole moment (field-independent basis, Debye-Ang):
   XX=            -14.0237   YY=            -14.0237   ZZ=            -14.6811
   XY=              0.0000   XZ=              0.0000   YZ=              0.0000

 P ROCCSD(T)=(MaxCyc=150, Full)/Gen SCF=(maxcycle=400, vshift=200) Pseu
 Normal termination of Gaussian 16 at Sat May  5 21:54:46 2018.
