 Gaussian 16, Revision A.03,
 Gaussian 16:  ES64L-G16RevA.03 25-Dec-2016

 ----------------------------------------------------------------------
 #P ROCCSD(T)=(MaxCyc=150, Full)/Gen SCF=(maxcycle=400) Pseudo=Read Int
 egral(NoXCTest) Pop=Regular MaxDisk=500GB Guess=Read IOp(5/15=2)
 ----------------------------------------------------------------------

 ---
 CuO
 ---
 Symbolic Z-matrix:
 Charge =  0 Multiplicity = 2

                         Standard orientation:
 ---------------------------------------------------------------------
 Center     Atomic      Atomic             Coordinates (Angstroms)
 Number     Number       Type             X           Y           Z
 ---------------------------------------------------------------------
      1         29           0        0.000000    0.000000    0.302703
      2          8           0        0.000000    0.000000   -1.097297
 ---------------------------------------------------------------------

 SCF Done:  E(ROHF) =  -212.123732469     A.U. after   18 cycles
 E2 =    -0.1385226917D+01 EUMP2 =    -0.21350895938602D+03
 CCSD(T)
 CCSD(T)= -0.21343619580D+03

 Unable to determine electronic state:  an orbital has unidentified symmetry.
 Alpha  occ. eigenvalues --   -5.34911  -3.63227  -3.60723  -3.59657  -1.30991
 Alpha  occ. eigenvalues --   -0.69856  -0.66287  -0.62861  -0.57359  -0.57355
 Alpha  occ. eigenvalues --   -0.48612  -0.43244  -0.37094
 Alpha virt. eigenvalues --   -0.00229   0.02704   0.02843   0.03572   0.04856
 Alpha virt. eigenvalues --    0.09294   0.09683   0.12135   0.13734   0.13747
 Alpha virt. eigenvalues --    0.14101   0.14247   0.14497   0.19063   0.21838

 Mulliken charges and spin densities:
               1          2
     1  Cu   0.690538   0.098889
     2  O   -0.690538   0.901111
 Sum of Mulliken charges =  -0.00000   1.00000

 Dipole moment (field-independent basis, Debye):
    X=              0.0000    Y=              0.0000    Z=              4.4113  Tot=              4.4113
 Quadrupole moment (field-independent basis, Debye-Ang):
   XX=            -16.5909   YY=            -18.0752   ZZ=            -18.4079
   XY=              0.0000   XZ=              0.0000   YZ=              0.0000

 \\#P ROCCSD(T)=(MaxCyc=150, Full)/Gen SCF=(maxcycle=400) Pseudo=Read I
 5089594\MP4SDQ=-213.4612677\CCSD=-213.3819968\CCSD(T)=-213.4361958\RMS
 Normal termination of Gaussian 16 at Mon Mar 26 13:05:52 2018.
