 Gaussian 16, Revision A.03,
 Gaussian 16:  ES64L-G16RevA.03 25-Dec-2016

 ----------------------------------------------------------------------
 #P ROCCSD(T)=(MaxCyc=150, Full)/Gen SCF=(maxcycle=400) Pseudo=Read Int
 egral(NoXCTest) Pop=Regular MaxDisk=500GB Guess=Read IOp(5/15=2)
 ----------------------------------------------------------------------

 ---
 CuO
 ---
 Symbolic Z-matrix:
 Charge =  0 Multiplicity = 2

                         Standard orientation:
 ---------------------------------------------------------------------
 Center     Atomic      Atomic             Coordinates (Angstroms)
 Number     Number       Type             X           Y           Z
 ---------------------------------------------------------------------
      1         29           0        0.000000    0.000000    0.302703
      2          8           0        0.000000    0.000000   -1.097297
 ---------------------------------------------------------------------

 SCF Done:  E(ROHF) =  -212.108070749     A.U. after   29 cycles
 E2 =    -0.1321290573D+01 EUMP2 =    -0.21342936132135D+03
 CCSD(T)
 CCSD(T)= -0.21335926045D+03

 Unable to determine electronic state:  an orbital has unidentified symmetry.
 Alpha  occ. eigenvalues --   -5.35184  -3.63433  -3.60917  -3.59845  -1.31048
 Alpha  occ. eigenvalues --   -0.69855  -0.66282  -0.62876  -0.57344  -0.57339
 Alpha  occ. eigenvalues --   -0.48610  -0.43248  -0.37119
 Alpha virt. eigenvalues --   -0.00210   0.03056   0.03229   0.03960   0.05181
 Alpha virt. eigenvalues --    0.10791   0.11286   0.13703   0.19316   0.19991
 Alpha virt. eigenvalues --    0.20011   0.21295   0.21556   0.22201   0.26021

 Mulliken charges and spin densities:
               1          2
     1  Cu   0.916089   0.086665
     2  O   -0.916089   0.913335
 Sum of Mulliken charges =  -0.00000   1.00000

 Dipole moment (field-independent basis, Debye):
    X=              0.0000    Y=              0.0000    Z=              4.4238  Tot=              4.4238
 Quadrupole moment (field-independent basis, Debye-Ang):
   XX=            -16.6018   YY=            -18.1013   ZZ=            -18.3947
   XY=              0.0000   XZ=              0.0000   YZ=              0.0000

 \\#P ROCCSD(T)=(MaxCyc=150, Full)/Gen SCF=(maxcycle=400) Pseudo=Read I
 .4293613\MP4SDQ=-213.3879209\CCSD=-213.3076776\CCSD(T)=-213.3592604\RM
 Normal termination of Gaussian 16 at Mon Mar 26 10:31:28 2018.
