 Gaussian 16, Revision A.03,
 Gaussian 16:  ES64L-G16RevA.03 25-Dec-2016

 ----------------------------------------------------------------------
 #P ROCCSD(T)=(MaxCyc=150, Full)/Gen SCF=(maxcycle=400, vshift=200) Pse
 udo=Read Integral(NoXCTest) Pop=Regular MaxDisk=500GB Guess=Read IOp(5
 /15=2)
 ----------------------------------------------------------------------

 ---
 CoH
 ---
 Symbolic Z-matrix:
 Charge =  0 Multiplicity = 3

                         Standard orientation:
 ---------------------------------------------------------------------
 Center     Atomic      Atomic             Coordinates (Angstroms)
 Number     Number       Type             X           Y           Z
 ---------------------------------------------------------------------
      1         27           0        0.000000    0.000000    0.050000
      2          1           0        0.000000    0.000000   -1.350000
 ---------------------------------------------------------------------

 SCF Done:  E(ROHF) =  -145.406063280     A.U. after   70 cycles
 E2 =    -0.8834275287D+00 EUMP2 =    -0.14628949080876D+03
 CCSD(T)
 CCSD(T)= -0.14627198811D+03

 Unable to determine electronic state:  partially filled degenerate orbitals.
 Alpha  occ. eigenvalues --   -4.40074  -2.92167  -2.91968  -2.91968  -0.49542
 Alpha  occ. eigenvalues --   -0.48559  -0.43820  -0.43820  -0.43789  -0.32488
 Alpha virt. eigenvalues --    0.00257   0.02694   0.02694   0.03252   0.05234
 Alpha virt. eigenvalues --    0.09385   0.09385   0.10250   0.11368   0.11411
 Alpha virt. eigenvalues --    0.11471   0.11563   0.11563   0.18932   0.25705

 Mulliken charges and spin densities:
               1          2
     1  Co   0.356233   1.974105
     2  H   -0.356233   0.025895
 Sum of Mulliken charges =  -0.00000   2.00000

 Dipole moment (field-independent basis, Debye):
    X=              0.0000    Y=              0.0000    Z=              4.1173  Tot=              4.1173
 Quadrupole moment (field-independent basis, Debye-Ang):
   XX=            -13.8100   YY=            -13.8100   ZZ=            -17.0479
   XY=              0.0000   XZ=              0.0000   YZ=              0.0000

 \\#P ROCCSD(T)=(MaxCyc=150, Full)/Gen SCF=(maxcycle=400, vshift=200) P
 \PMP2-0=-146.2894908\MP4SDQ=-146.2659315\CCSD=-146.240333\CCSD(T)=-146
 Normal termination of Gaussian 16 at Sat Apr 21 22:50:30 2018.
