 Gaussian 16, Revision A.03,
 Gaussian 16:  ES64L-G16RevA.03 25-Dec-2016

 ----------------------------------------------------------------------
 #P ROCCSD(T)=(MaxCyc=150, Full)/Gen SCF=(maxcycle=400, vshift=200) Pse
 udo=Read Integral(NoXCTest) Pop=Regular MaxDisk=500GB Guess=Read IOp(5
 /15=2)
 ----------------------------------------------------------------------

 ---
 CoH
 ---
 Symbolic Z-matrix:
 Charge =  0 Multiplicity = 3

                         Standard orientation:
 ---------------------------------------------------------------------
 Center     Atomic      Atomic             Coordinates (Angstroms)
 Number     Number       Type             X           Y           Z
 ---------------------------------------------------------------------
      1         27           0        0.000000    0.000000    0.050000
      2          1           0        0.000000    0.000000   -1.350000
 ---------------------------------------------------------------------

 SCF Done:  E(ROHF) =  -145.408201415     A.U. after   25 cycles
 E2 =    -0.9444378489D+00 EUMP2 =    -0.14635263926391D+03
 CCSD(T)
 CCSD(T)= -0.14633118214D+03

 Unable to determine electronic state:  partially filled degenerate orbitals.
 Alpha  occ. eigenvalues --   -4.40047  -2.92148  -2.91948  -2.91948  -0.49548
 Alpha  occ. eigenvalues --   -0.48563  -0.43836  -0.43836  -0.43802  -0.32489
 Alpha virt. eigenvalues --    0.00163   0.02368   0.02368   0.02658   0.04298
 Alpha virt. eigenvalues --    0.06446   0.06654   0.06665   0.06880   0.06880
 Alpha virt. eigenvalues --    0.08189   0.08189   0.08673   0.14714   0.18894

 Mulliken charges and spin densities:
               1          2
     1  Co   0.356920   1.980136
     2  H   -0.356920   0.019864
 Sum of Mulliken charges =  -0.00000   2.00000

 Dipole moment (field-independent basis, Debye):
    X=              0.0000    Y=              0.0000    Z=              4.1136  Tot=              4.1136
 Quadrupole moment (field-independent basis, Debye-Ang):
   XX=            -13.7960   YY=            -13.7960   ZZ=            -17.0491
   XY=              0.0000   XZ=              0.0000   YZ=              0.0000

 \\#P ROCCSD(T)=(MaxCyc=150, Full)/Gen SCF=(maxcycle=400, vshift=200) P
 \PMP2-0=-146.3526393\MP4SDQ=-146.3220558\CCSD=-146.2973437\CCSD(T)=-14
 Normal termination of Gaussian 16 at Sat Apr 28 21:09:45 2018.
