 Gaussian 16, Revision A.03,
 Gaussian 16:  ES64L-G16RevA.03 25-Dec-2016

 ----------------------------------------------------------------------
 #P ROCCSD(T)=(MaxCyc=150, Full)/Gen SCF=(maxcycle=400, vshift=200) Pse
 udo=Read Integral(NoXCTest) Pop=Regular MaxDisk=500GB Guess=Read IOp(5
 /15=2)
 ----------------------------------------------------------------------

 ---
 CoH
 ---
 Symbolic Z-matrix:
 Charge =  0 Multiplicity = 3

                         Standard orientation:
 ---------------------------------------------------------------------
 Center     Atomic      Atomic             Coordinates (Angstroms)
 Number     Number       Type             X           Y           Z
 ---------------------------------------------------------------------
      1         27           0        0.000000    0.000000    0.050000
      2          1           0        0.000000    0.000000   -1.350000
 ---------------------------------------------------------------------

 SCF Done:  E(ROHF) =  -145.407719751     A.U. after   26 cycles
 E2 =    -0.9246219589D+00 EUMP2 =    -0.14633234171012D+03
 CCSD(T)
 CCSD(T)= -0.14631315445D+03

 Unable to determine electronic state:  partially filled degenerate orbitals.
 Alpha  occ. eigenvalues --   -4.40033  -2.92150  -2.91950  -2.91950  -0.49550
 Alpha  occ. eigenvalues --   -0.48565  -0.43830  -0.43830  -0.43797  -0.32488
 Alpha virt. eigenvalues --    0.00226   0.02447   0.02447   0.02962   0.04983
 Alpha virt. eigenvalues --    0.06990   0.07364   0.07378   0.07557   0.07557
 Alpha virt. eigenvalues --    0.08584   0.08584   0.09952   0.18886   0.20219

 Mulliken charges and spin densities:
               1          2
     1  Co   0.386148   1.991446
     2  H   -0.386148   0.008554
 Sum of Mulliken charges =  -0.00000   2.00000

 Dipole moment (field-independent basis, Debye):
    X=              0.0000    Y=              0.0000    Z=              4.1144  Tot=              4.1144
 Quadrupole moment (field-independent basis, Debye-Ang):
   XX=            -13.7966   YY=            -13.7966   ZZ=            -17.0489
   XY=              0.0000   XZ=              0.0000   YZ=              0.0000

 \\#P ROCCSD(T)=(MaxCyc=150, Full)/Gen SCF=(maxcycle=400, vshift=200) P
 \PMP2-0=-146.3323417\MP4SDQ=-146.304977\CCSD=-146.2799106\CCSD(T)=-146
 Normal termination of Gaussian 16 at Sat Apr 21 23:33:21 2018.
