 Gaussian 16, Revision A.03,
 Gaussian 16:  ES64L-G16RevA.03 25-Dec-2016

 ----------------------------------------------------------------------
 #P ROCCSD(T)=(MaxCyc=150, Full)/Gen SCF=(maxcycle=400) Pseudo=Read Int
 egral(NoXCTest) Pop=Regular MaxDisk=500GB Guess=Read
 ----------------------------------------------------------------------

 ---
 FeO
 ---
 Symbolic Z-matrix:
 Charge =  0 Multiplicity = 5

                         Standard orientation:
 ---------------------------------------------------------------------
 Center     Atomic      Atomic             Coordinates (Angstroms)
 Number     Number       Type             X           Y           Z
 ---------------------------------------------------------------------
      1         26           0        0.000000    0.000000    0.423529
      2          8           0        0.000000    0.000000   -1.376471
 ---------------------------------------------------------------------

 SCF Done:  E(ROHF) =  -138.484576090     A.U. after    2 cycles
 E2 =    -0.9828661925D+00 EUMP2 =    -0.13946744228272D+03
 CCSD(T)
 CCSD(T)= -0.13949450808D+03

 Unable to determine electronic state:  partially filled degenerate orbitals.
 Alpha  occ. eigenvalues --   -4.40036  -3.06635  -2.99343  -2.99343  -1.11197
 Alpha  occ. eigenvalues --   -0.71065  -0.71065  -0.69484  -0.67913  -0.62969
 Alpha  occ. eigenvalues --   -0.34362  -0.34342  -0.34342
 Alpha virt. eigenvalues --   -0.05928   0.01525   0.01525   0.01625   0.04007
 Alpha virt. eigenvalues --    0.06724   0.06724   0.08742   0.09398   0.09429
 Alpha virt. eigenvalues --    0.10469   0.10469   0.13457   0.14762   0.24004

 Mulliken charges and spin densities:
               1          2
     1  Fe   1.107213   3.921150
     2  O   -1.107213   0.078850
 Sum of Mulliken charges =  -0.00000   4.00000

 Dipole moment (field-independent basis, Debye):
    X=              0.0000    Y=              0.0000    Z=              9.4514  Tot=              9.4514
 Quadrupole moment (field-independent basis, Debye-Ang):
   XX=            -18.8020   YY=            -18.8020   ZZ=            -23.8893
   XY=              0.0000   XZ=              0.0000   YZ=              0.0000

 \\#P ROCCSD(T)=(MaxCyc=150, Full)/Gen SCF=(maxcycle=400) Pseudo=Read I
 DQ=-139.4597981\CCSD=-139.4468005\CCSD(T)=-139.4945081\RMSD=7.542e-09\
 Normal termination of Gaussian 16 at Sun Mar 25 00:46:54 2018.
