 Gaussian 16, Revision A.03,
 Gaussian 16:  ES64L-G16RevA.03 25-Dec-2016

 ----------------------------------------------------------------------
 #P ROCCSD(T)=(MaxCyc=150, Full)/Gen SCF=(maxcycle=400) Pseudo=Read Int
 egral(NoXCTest) Pop=Regular MaxDisk=500GB
 ----------------------------------------------------------------------

 ---
 FeO
 ---
 Symbolic Z-matrix:
 Charge =  0 Multiplicity = 5

                         Standard orientation:
 ---------------------------------------------------------------------
 Center     Atomic      Atomic             Coordinates (Angstroms)
 Number     Number       Type             X           Y           Z
 ---------------------------------------------------------------------
      1         26           0        0.000000    0.000000    0.423529
      2          8           0        0.000000    0.000000   -1.376471
 ---------------------------------------------------------------------

 SCF Done:  E(ROHF) =  -138.487591065     A.U. after  138 cycles
 E2 =    -0.1029717951D+01 EUMP2 =    -0.13951730901646D+03
 CCSD(T)
 CCSD(T)= -0.13954186046D+03

 Unable to determine electronic state:  partially filled degenerate orbitals.
 Alpha  occ. eigenvalues --   -4.40006  -3.06606  -2.99317  -2.99317  -1.11155
 Alpha  occ. eigenvalues --   -0.71062  -0.71062  -0.69478  -0.67910  -0.62966
 Alpha  occ. eigenvalues --   -0.34349  -0.34349  -0.34344
 Alpha virt. eigenvalues --   -0.05919   0.01267   0.01267   0.01380   0.03543
 Alpha virt. eigenvalues --    0.05894   0.05894   0.06355   0.06366   0.06681
 Alpha virt. eigenvalues --    0.07548   0.07548   0.11361   0.13370   0.18993

 Mulliken charges and spin densities:
               1          2
     1  Fe   1.097880   3.931373
     2  O   -1.097880   0.068627
 Sum of Mulliken charges =  -0.00000   4.00000

 Dipole moment (field-independent basis, Debye):
    X=              0.0000    Y=              0.0000    Z=              9.4406  Tot=              9.4406
 Quadrupole moment (field-independent basis, Debye-Ang):
   XX=            -18.7995   YY=            -18.7995   ZZ=            -23.8668
   XY=              0.0000   XZ=              0.0000   YZ=              0.0000

 \\#P ROCCSD(T)=(MaxCyc=150, Full)/Gen SCF=(maxcycle=400) Pseudo=Read I
 789\CCSD=-139.4918353\CCSD(T)=-139.5418605\RMSD=3.153e-09\PG=C*V [C*(O
 Normal termination of Gaussian 16 at Sun Mar 25 03:09:52 2018.
