 Gaussian 16, Revision A.03,
 Gaussian 16:  ES64L-G16RevA.03 25-Dec-2016

 ----------------------------------------------------------------------
 #P ROCCSD(T)=(maxcyc=150, Full)/Gen 5d 7f SCF=(maxcycles=300) Integral
 (NoXCTest, DKHSO) MaxDisk=500GB Pop=Regular IOp(5/15=2) Guess=Read
 ----------------------------------------------------------------------

 ---
 ScH
 ---
 Symbolic Z-matrix:
 Charge =  0 Multiplicity = 1

                         Standard orientation:
 ---------------------------------------------------------------------
 Center     Atomic      Atomic             Coordinates (Angstroms)
 Number     Number       Type             X           Y           Z
 ---------------------------------------------------------------------
      1         21           0        0.000000    0.000000    0.095455
      2          1           0        0.000000    0.000000   -2.004545
 ---------------------------------------------------------------------

 SCF Done:  E(ROHF) =  -763.819743756     A.U. after   13 cycles
 E2 =    -0.7874264539D+00 EUMP2 =    -0.76460717020950D+03
 CCSD(T)
 CCSD(T)= -0.76464704216D+03

 The electronic state is 1-SG.
 Alpha  occ. eigenvalues -- -166.95220 -19.40901 -15.83236 -15.83236 -15.82417
 Alpha  occ. eigenvalues --   -2.71413  -1.68790  -1.68790  -1.68560  -0.36973
 Alpha  occ. eigenvalues --   -0.24315
 Alpha virt. eigenvalues --    0.00889   0.00889   0.01174   0.01824   0.02559
 Alpha virt. eigenvalues --    0.02559   0.02681   0.02681   0.02751   0.03545
 Alpha virt. eigenvalues --    0.03753   0.03753   0.06152   0.06152   0.06914

 Mulliken charges and spin densities:
               1          2
     1  Sc   0.366117   0.000000
     2  H   -0.366117   0.000000
 Sum of Mulliken charges =  -0.00000   0.00000

 Dipole moment (field-independent basis, Debye):
    X=              0.0000    Y=             -0.0000    Z=              2.4811  Tot=              2.4811
 Quadrupole moment (field-independent basis, Debye-Ang):
   XX=            -23.3227   YY=            -23.3227   ZZ=            -29.8811
   XY=              0.0000   XZ=              0.0000   YZ=              0.0000

 P ROCCSD(T)=(maxcyc=150, Full)/Gen 5d 7f SCF=(maxcycles=300) Integral(
 MP2-0=-764.6071702\MP4SDQ=-764.6244042\CCSD=-764.6257536\CCSD(T)=-764.
 Normal termination of Gaussian 16 at Tue Feb 13 20:51:16 2018.
