 Gaussian 16, Revision A.03,
 Gaussian 16:  ES64L-G16RevA.03 25-Dec-2016

 ----------------------------------------------------------------------
 #P ROCCSD(T)=(maxcyc=150, Full)/Gen 5d 7f SCF=(maxcycles=300) Integral
 (NoXCTest, DKHSO) MaxDisk=500GB Pop=Regular IOp(5/15=2) Guess=Read
 ----------------------------------------------------------------------

 ---
 CrH
 ---
 Symbolic Z-matrix:
 Charge =  0 Multiplicity = 6

                         Standard orientation:
 ---------------------------------------------------------------------
 Center     Atomic      Atomic             Coordinates (Angstroms)
 Number     Number       Type             X           Y           Z
 ---------------------------------------------------------------------
      1         24           0        0.000000    0.000000    0.040000
      2          1           0        0.000000    0.000000   -0.960000
 ---------------------------------------------------------------------

 SCF Done:  E(ROHF) =  -1049.94994512     A.U. after   75 cycles
 E2 =    -0.1031590724D+01 EUMP2 =    -0.10509815358408D+04
 CCSD(T)
 CCSD(T)= -0.10509786577D+04

 The electronic state is 6-SG.
 Alpha  occ. eigenvalues -- -222.07138 -26.65053 -22.28544 -22.28544 -22.28475
 Alpha  occ. eigenvalues --   -3.55532  -2.32861  -2.30007  -2.30007  -0.49948
 Alpha  occ. eigenvalues --   -0.42350  -0.42350  -0.39144  -0.39144  -0.24625
 Alpha virt. eigenvalues --    0.01585   0.01794   0.01794   0.02249   0.04771
 Alpha virt. eigenvalues --    0.05507   0.05507   0.05518   0.05518   0.05920
 Alpha virt. eigenvalues --    0.05987   0.05987   0.09309   0.13663   0.16760

 Mulliken charges and spin densities:
               1          2
     1  Cr   0.182523   4.987021
     2  H   -0.182523   0.012979
 Sum of Mulliken charges =  -0.00000   5.00000

 Dipole moment (field-independent basis, Debye):
    X=             -0.0000    Y=             -0.0000    Z=              1.9056  Tot=              1.9056
 Quadrupole moment (field-independent basis, Debye-Ang):
   XX=            -16.7739   YY=            -16.7739   ZZ=            -17.7926
   XY=              0.0000   XZ=             -0.0000   YZ=             -0.0000

 \\#P ROCCSD(T)=(maxcyc=150, Full)/Gen 5d 7f SCF=(maxcycles=300) Integr
 Normal termination of Gaussian 16 at Tue Feb 13 19:40:31 2018.
