 Gaussian 16, Revision A.03,
 Gaussian 16:  ES64L-G16RevA.03 25-Dec-2016

 ----------------------------------------------------------------------
 #P ROCCSD(T)=(maxcyc=150, Full, SaveAmplitudes, ReadAmplitudes)/Gen 5d
  7f SCF=(maxcycles=300) Integral(NoXCTest) MaxDisk=500GB Pop=Regular P
 seudo=Read Guess=Read IOp(5/15=2)
 ----------------------------------------------------------------------

 ---
 CrH
 ---
 Symbolic Z-matrix:
 Charge =  0 Multiplicity = 6

                         Standard orientation:
 ---------------------------------------------------------------------
 Center     Atomic      Atomic             Coordinates (Angstroms)
 Number     Number       Type             X           Y           Z
 ---------------------------------------------------------------------
      1         24           0        0.000000    0.000000    0.048000
      2          1           0        0.000000    0.000000   -1.152000
 ---------------------------------------------------------------------

 SCF Done:  E(ROHF) =  -86.2772834037     A.U. after   32 cycles
 E2 =    -0.5643129739D+00 EUMP2 =    -0.86841596377589D+02
 CCSD(T)
 CCSD(T)= -0.86865525113D+02

 The electronic state is 6-SG.
 Alpha  occ. eigenvalues --   -3.77758  -2.49313  -2.49313  -2.47785  -0.47417
 Alpha  occ. eigenvalues --   -0.42698  -0.42698  -0.40054  -0.40054  -0.26005
 Alpha virt. eigenvalues --    0.01667   0.01667   0.02047   0.02308   0.05978
 Alpha virt. eigenvalues --    0.05978   0.06165   0.07907   0.07907   0.08116
 Alpha virt. eigenvalues --    0.08116   0.08207   0.09839   0.19473   0.21629

 Mulliken charges and spin densities:
               1          2
     1  Cr   0.763470   4.995122
     2  H   -0.763470   0.004878
 Sum of Mulliken charges =  -0.00000   5.00000

 Dipole moment (field-independent basis, Debye):
    X=              0.0000    Y=              0.0000    Z=              1.6092  Tot=              1.6092
 Quadrupole moment (field-independent basis, Debye-Ang):
   XX=            -16.9663   YY=            -16.9663   ZZ=            -19.2754
   XY=              0.0000   XZ=              0.0000   YZ=              0.0000

 \\#P ROCCSD(T)=(maxcyc=150, Full, SaveAmplitudes, ReadAmplitudes)/Gen
 34\CCSD=-86.8462534\CCSD(T)=-86.8655251\RMSD=5.689e-09\PG=C*V [C*(H1Cr
 Normal termination of Gaussian 16 at Sun Feb 25 22:05:10 2018.
