 Gaussian 16, Revision A.03,
 Gaussian 16:  ES64L-G16RevA.03 25-Dec-2016

 ----------------------------------------------------------------------
 #P ROCCSD(T)=(maxcyc=150, Full, SaveAmplitudes, ReadAmplitudes)/Gen 5d
  7f SCF=(maxcycles=300) Integral(NoXCTest) MaxDisk=500GB Pop=Regular P
 seudo=Read Guess=Read
 ----------------------------------------------------------------------

 ---
 TiO
 ---
 Symbolic Z-matrix:
 Charge =  0 Multiplicity = 3

                         Standard orientation:
 ---------------------------------------------------------------------
 Center     Atomic      Atomic             Coordinates (Angstroms)
 Number     Number       Type             X           Y           Z
 ---------------------------------------------------------------------
      1         22           0        0.000000    0.000000    0.373333
      2          8           0        0.000000    0.000000   -1.026667
 ---------------------------------------------------------------------

 SCF Done:  E(ROHF) =  -73.3689135826     A.U. after   22 cycles
 E2 =    -0.7713366424D+00 EUMP2 =    -0.74140250225003D+02
 CCSD(T)
 CCSD(T)= -0.74163021833D+02

 Unable to determine electronic state:  an orbital has unidentified symmetry.
 Alpha  occ. eigenvalues --   -2.96365  -1.92062  -1.85104  -1.85104  -1.16410
 Alpha  occ. eigenvalues --   -0.53586  -0.53586  -0.50427  -0.39129  -0.23286
 Alpha virt. eigenvalues --    0.00958   0.00958   0.02023   0.02301   0.03776
 Alpha virt. eigenvalues --    0.03831   0.03855   0.03855   0.03950   0.04397
 Alpha virt. eigenvalues --    0.04397   0.06765   0.10292   0.10452   0.11387

 Mulliken charges and spin densities:
               1          2
     1  Ti   0.939316   1.971340
     2  O   -0.939316   0.028660
 Sum of Mulliken charges =  -0.00000   2.00000

 Dipole moment (field-independent basis, Debye):
    X=              0.0000    Y=              0.0000    Z=              1.9085  Tot=              1.9085
 Quadrupole moment (field-independent basis, Debye-Ang):
   XX=            -21.6900   YY=            -21.6900   ZZ=            -27.7337
   XY=              0.0000   XZ=              0.0000   YZ=              0.0000

 \\#P ROCCSD(T)=(maxcyc=150, Full, SaveAmplitudes, ReadAmplitudes)/Gen
 -0=-74.1402502\CCSD=-74.1235865\CCSD(T)=-74.1630218\RMSD=2.562e-10\PG=
 Normal termination of Gaussian 16 at Fri Mar  9 16:55:26 2018.
