 Gaussian 16, Revision A.03,
 Gaussian 16:  ES64L-G16RevA.03 25-Dec-2016

 ----------------------------------------------------------------------
 #P ROCCSD(T)=(MaxCyc=150, Full)/Gen SCF=(maxcycle=400) Pseudo=Read Int
 egral(NoXCTest) Pop=Regular MaxDisk=500GB Guess=Read IOp(5/15=2)
 ----------------------------------------------------------------------

 ---
 CuO
 ---
 Symbolic Z-matrix:
 Charge =  0 Multiplicity = 2

                         Standard orientation:
 ---------------------------------------------------------------------
 Center     Atomic      Atomic             Coordinates (Angstroms)
 Number     Number       Type             X           Y           Z
 ---------------------------------------------------------------------
      1         29           0        0.000000    0.000000    0.281081
      2          8           0        0.000000    0.000000   -1.018919
 ---------------------------------------------------------------------

 SCF Done:  E(ROHF) =  -211.735725655     A.U. after   20 cycles
 E2 =    -0.1413210792D+01 EUMP2 =    -0.21314893644729D+03
 CCSD(T)
 CCSD(T)= -0.21306494552D+03

 Unable to determine electronic state:  an orbital has unidentified symmetry.
 Alpha  occ. eigenvalues --   -5.39504  -3.62473  -3.58336  -3.56562  -1.35742
 Alpha  occ. eigenvalues --   -0.76923  -0.73487  -0.67489  -0.61727  -0.61691
 Alpha  occ. eigenvalues --   -0.49768  -0.44655  -0.35895
 Alpha virt. eigenvalues --    0.00280   0.02748   0.02882   0.03482   0.05187
 Alpha virt. eigenvalues --    0.09396   0.09817   0.12107   0.13812   0.13821
 Alpha virt. eigenvalues --    0.13912   0.14212   0.14254   0.19131   0.21948

 Mulliken charges and spin densities:
               1          2
     1  Cu   0.616560   0.172863
     2  O   -0.616560   0.827137
 Sum of Mulliken charges =  -0.00000   1.00000

 Dipole moment (field-independent basis, Debye):
    X=              0.0000    Y=              0.0000    Z=              3.7555  Tot=              3.7555
 Quadrupole moment (field-independent basis, Debye-Ang):
   XX=            -17.0757   YY=            -18.4718   ZZ=            -18.1040
   XY=              0.0000   XZ=              0.0000   YZ=              0.0000

 \\#P ROCCSD(T)=(MaxCyc=150, Full)/Gen SCF=(maxcycle=400) Pseudo=Read I
 .1489364\MP4SDQ=-213.0913759\CCSD=-213.0095489\CCSD(T)=-213.0649455\RM
 Normal termination of Gaussian 16 at Mon Mar 26 15:11:17 2018.
