 Gaussian 16, Revision A.03,
 Gaussian 16:  ES64L-G16RevA.03 25-Dec-2016

 ----------------------------------------------------------------------
 #P ROCCSD(T)=(MaxCyc=150, Full)/Gen SCF=(maxcycle=400) Pseudo=Read Int
 egral(NoXCTest) Pop=Regular MaxDisk=500GB Guess=Read IOp(5/15=2)
 ----------------------------------------------------------------------

 ---
 CuO
 ---
 Symbolic Z-matrix:
 Charge =  0 Multiplicity = 2

                         Standard orientation:
 ---------------------------------------------------------------------
 Center     Atomic      Atomic             Coordinates (Angstroms)
 Number     Number       Type             X           Y           Z
 ---------------------------------------------------------------------
      1         29           0        0.000000    0.000000    0.281081
      2          8           0        0.000000    0.000000   -1.018919
 ---------------------------------------------------------------------

 SCF Done:  E(ROHF) =  -211.731518230     A.U. after   27 cycles
 E2 =    -0.1349158449D+01 EUMP2 =    -0.21308067667895D+03
 CCSD(T)
 CCSD(T)= -0.21299921817D+03

 Unable to determine electronic state:  an orbital has unidentified symmetry.
 Alpha  occ. eigenvalues --   -5.39515  -3.62502  -3.58355  -3.56574  -1.35809
 Alpha  occ. eigenvalues --   -0.76916  -0.73479  -0.67507  -0.61730  -0.61694
 Alpha  occ. eigenvalues --   -0.49763  -0.44647  -0.35916
 Alpha virt. eigenvalues --    0.00312   0.03106   0.03273   0.03837   0.05557
 Alpha virt. eigenvalues --    0.10856   0.11381   0.13514   0.19107   0.20047
 Alpha virt. eigenvalues --    0.20062   0.20986   0.21772   0.21850   0.25917

 Mulliken charges and spin densities:
               1          2
     1  Cu   0.845528   0.159321
     2  O   -0.845528   0.840679
 Sum of Mulliken charges =   0.00000   1.00000

 Dipole moment (field-independent basis, Debye):
    X=              0.0000    Y=              0.0000    Z=              3.7683  Tot=              3.7683
 Quadrupole moment (field-independent basis, Debye-Ang):
   XX=            -17.0839   YY=            -18.4950   ZZ=            -18.0975
   XY=              0.0000   XZ=              0.0000   YZ=              0.0000

 \\#P ROCCSD(T)=(MaxCyc=150, Full)/Gen SCF=(maxcycle=400) Pseudo=Read I
 .0806767\MP4SDQ=-213.0295015\CCSD=-212.9465116\CCSD(T)=-212.9992182\RM
 Normal termination of Gaussian 16 at Mon Mar 26 12:48:19 2018.
