 Gaussian 16, Revision A.03,
 Gaussian 16:  ES64L-G16RevA.03 25-Dec-2016

 ----------------------------------------------------------------------
 #P ROCCSD(T)=(maxcyc=150, Full)/Gen 5d 7f SCF=(maxcycles=300, NoVarAcc
 , VShift=200) MaxDisk=100GB Pop=Regular Pseudo=Read Guess=Read
 ----------------------------------------------------------------------

 --
 Mn
 --
 Symbolic Z-matrix:
 Charge =  0 Multiplicity = 6

                         Standard orientation:
 ---------------------------------------------------------------------
 Center     Atomic      Atomic             Coordinates (Angstroms)
 Number     Number       Type             X           Y           Z
 ---------------------------------------------------------------------
      1         25           0        0.000000    0.000000    0.000000
 ---------------------------------------------------------------------

 SCF Done:  E(ROHF) =  -103.430832740     A.U. after   20 cycles
 E2 =    -0.6058110719D+00 EUMP2 =    -0.10403664381181D+03
 CCSD(T)
 CCSD(T)= -0.10405521191D+03

 The electronic state is 6-A1G.
 Alpha  occ. eigenvalues --   -4.15098  -2.79353  -2.79353  -2.79353  -0.62933
 Alpha  occ. eigenvalues --   -0.62933  -0.62933  -0.62933  -0.62933  -0.26814
 Alpha virt. eigenvalues --    0.01708   0.01708   0.01708   0.02124   0.05597
 Alpha virt. eigenvalues --    0.05597   0.05597   0.05597   0.05597   0.05609
 Alpha virt. eigenvalues --    0.05609   0.05609   0.10429   0.17438   0.17438

 Mulliken charges and spin densities:
               1          2
     1  Mn  -0.000000   5.000000
 Sum of Mulliken charges =  -0.00000   5.00000

 Dipole moment (field-independent basis, Debye):
    X=              0.0000    Y=              0.0000    Z=              0.0000  Tot=              0.0000
 Quadrupole moment (field-independent basis, Debye-Ang):
   XX=            -18.8486   YY=            -18.8486   ZZ=            -18.8486
   XY=              0.0000   XZ=             -0.0000   YZ=             -0.0000

 1\1\GINC-C455-014\SP\ROCCSD(T)-Full\Gen\Mn1(6)\AANNABE\26-Mar-2018\0\\
 #P ROCCSD(T)=(maxcyc=150, Full)/Gen 5d 7f SCF=(maxcycles=300, NoVarAcc
 , VShift=200) MaxDisk=100GB Pop=Regular Pseudo=Read Guess=Read\\Mn\\0,
 6\Mn,0,0.,0.,0.\\Version=ES64L-G16RevA.03\State=6-A1G\HF=-103.4308327\
 MP2=-104.0366438\MP3=-104.0342095\PUHF=-103.4308327\PMP2-0=-104.036643
 8\MP4SDQ=-104.0362613\CCSD=-104.0365317\CCSD(T)=-104.0552119\RMSD=9.13
 2e-09\PG=OH [O(Mn1)]\\@

 Normal termination of Gaussian 16 at Mon Mar 26 11:44:26 2018.
