 Gaussian 16, Revision A.03,
 Gaussian 16:  ES64L-G16RevA.03 25-Dec-2016

 ----------------------------------------------------------------------
 #P ROCCSD(T)=(maxcyc=150, Full, SaveAmplitudes, ReadAmplitudes)/Gen 5d
  7f SCF=(maxcycles=300) Integral(NoXCTest) MaxDisk=500GB Pop=Regular P
 seudo=Read Guess=Read IOp(5/15=2)
 ----------------------------------------------------------------------

 ---
 MnO
 ---
 Symbolic Z-matrix:
 Charge =  0 Multiplicity = 6

                         Standard orientation:
 ---------------------------------------------------------------------
 Center     Atomic      Atomic             Coordinates (Angstroms)
 Number     Number       Type             X           Y           Z
 ---------------------------------------------------------------------
      1         25           0        0.000000    0.000000    0.387879
      2          8           0        0.000000    0.000000   -1.212121
 ---------------------------------------------------------------------

 SCF Done:  E(ROHF) =  -119.348182751     A.U. after   31 cycles
 E2 =    -0.9190934493D+00 EUMP2 =    -0.12026727620015D+03
 CCSD(T)
 CCSD(T)= -0.12029677577D+03

 The electronic state is 6-SG.
 Alpha  occ. eigenvalues --   -4.08018  -2.74152  -2.74152  -2.73450  -1.14408
 Alpha  occ. eigenvalues --   -0.64198  -0.64198  -0.62422  -0.62422  -0.56959
 Alpha  occ. eigenvalues --   -0.34880  -0.34880  -0.34148
 Alpha virt. eigenvalues --   -0.03593   0.01774   0.01774   0.02177   0.03841
 Alpha virt. eigenvalues --    0.06896   0.06896   0.08290   0.08550   0.08550
 Alpha virt. eigenvalues --    0.09687   0.09687   0.13584   0.13951   0.23173

 Mulliken charges and spin densities:
               1          2
     1  Mn   1.144220   4.863575
     2  O   -1.144220   0.136425
 Sum of Mulliken charges =  -0.00000   5.00000

 Dipole moment (field-independent basis, Debye):
    X=              0.0000    Y=              0.0000    Z=              8.3803  Tot=              8.3803
 Quadrupole moment (field-independent basis, Debye-Ang):
   XX=            -18.7416   YY=            -18.7416   ZZ=            -22.9062
   XY=              0.0000   XZ=              0.0000   YZ=              0.0000

 \\#P ROCCSD(T)=(maxcyc=150, Full, SaveAmplitudes, ReadAmplitudes)/Gen
 633968\CCSD=-120.2550794\CCSD(T)=-120.2967758\RMSD=8.067e-09\PG=C*V [C
 Normal termination of Gaussian 16 at Tue Mar 13 12:36:10 2018.
