 Gaussian 16, Revision A.03,
 Gaussian 16:  ES64L-G16RevA.03 25-Dec-2016

 ----------------------------------------------------------------------
 #P ROCCSD(T)=(maxcyc=150, Full, SaveAmplitudes, ReadAmplitudes)/Gen 5d
  7f SCF=(maxcycles=300) Integral(NoXCTest) MaxDisk=500GB Pop=Regular P
 seudo=Read Guess=Read IOp(5/15=2)
 ----------------------------------------------------------------------

 ---
 CrO
 ---
 Symbolic Z-matrix:
 Charge =  0 Multiplicity = 5

                         Standard orientation:
 ---------------------------------------------------------------------
 Center     Atomic      Atomic             Coordinates (Angstroms)
 Number     Number       Type             X           Y           Z
 ---------------------------------------------------------------------
      1         24           0        0.000000    0.000000    0.325000
      2          8           0        0.000000    0.000000   -0.975000
 ---------------------------------------------------------------------

 SCF Done:  E(ROHF) =  -101.725219290     A.U. after   28 cycles
 E2 =    -0.8802292108D+00 EUMP2 =    -0.10260544850111D+03
 CCSD(T)
 CCSD(T)= -0.10261757652D+03

 Unable to determine electronic state:  an orbital has unidentified symmetry.
 Alpha  occ. eigenvalues --   -3.75040  -2.48558  -2.47381  -2.44337  -1.24643
 Alpha  occ. eigenvalues --   -0.69142  -0.60093  -0.59717  -0.51506  -0.51131
 Alpha  occ. eigenvalues --   -0.35488  -0.27024
 Alpha virt. eigenvalues --    0.01341   0.02332   0.02454   0.02872   0.05256
 Alpha virt. eigenvalues --    0.06587   0.07295   0.07733   0.07737   0.07886
 Alpha virt. eigenvalues --    0.08714   0.09854   0.12263   0.17185   0.19349

 Mulliken charges and spin densities:
               1          2
     1  Cr   0.945023   3.777316
     2  O   -0.945023   0.222684
 Sum of Mulliken charges =  -0.00000   4.00000

 Dipole moment (field-independent basis, Debye):
    X=              0.0000    Y=              0.0000    Z=              1.7293  Tot=              1.7293
 Quadrupole moment (field-independent basis, Debye-Ang):
   XX=            -21.5247   YY=            -19.8454   ZZ=            -23.6982
   XY=              0.0000   XZ=              0.0000   YZ=              0.0000

 \\#P ROCCSD(T)=(maxcyc=150, Full, SaveAmplitudes, ReadAmplitudes)/Gen
 SD=-102.5757938\CCSD(T)=-102.6175765\RMSD=9.028e-09\PG=C*V [C*(O1Cr1)]
 Normal termination of Gaussian 16 at Tue Mar 13 02:54:54 2018.
