 Gaussian 16, Revision A.03,
 Gaussian 16:  ES64L-G16RevA.03 25-Dec-2016

 ----------------------------------------------------------------------
 #P ROCCSD(T)=(MaxCyc=150, Full)/Gen SCF=(maxcycle=400) Pseudo=Read Int
 egral(NoXCTest) Pop=Regular MaxDisk=500GB Guess=Read IOp(5/15=2)
 ----------------------------------------------------------------------

 ---
 ZnO
 ---
 Symbolic Z-matrix:
 Charge =  0 Multiplicity = 1

                         Standard orientation:
 ---------------------------------------------------------------------
 Center     Atomic      Atomic             Coordinates (Angstroms)
 Number     Number       Type             X           Y           Z
 ---------------------------------------------------------------------
      1         30           0        0.000000    0.000000    0.421053
      2          8           0        0.000000    0.000000   -1.578947
 ---------------------------------------------------------------------

 SCF Done:  E(ROHF) =  -241.639045318     A.U. after   12 cycles
 E2 =    -0.1297274709D+01 EUMP2 =    -0.24293632002739D+03
 CCSD(T)
 CCSD(T)= -0.24290251601D+03

 The electronic state is 1-SG.
 Alpha  occ. eigenvalues --   -5.91731  -3.98882  -3.98882  -3.98821  -1.17626
 Alpha  occ. eigenvalues --   -0.81709  -0.81709  -0.81631  -0.81631  -0.80925
 Alpha  occ. eigenvalues --   -0.44699  -0.44699  -0.34765
 Alpha virt. eigenvalues --   -0.03863   0.02470   0.02470   0.02859   0.04426
 Alpha virt. eigenvalues --    0.08406   0.08406   0.13059   0.17385   0.21127
 Alpha virt. eigenvalues --    0.22321   0.22321   0.24824   0.24824   0.30220

 Mulliken charges and spin densities:
               1          2
     1  Zn   0.676326   0.000000
     2  O   -0.676326   0.000000
 Sum of Mulliken charges =  -0.00000   0.00000

 Dipole moment (field-independent basis, Debye):
    X=              0.0000    Y=              0.0000    Z=              5.5209  Tot=              5.5209
 Quadrupole moment (field-independent basis, Debye-Ang):
   XX=            -18.7435   YY=            -18.7435   ZZ=            -21.8968
   XY=              0.0000   XZ=              0.0000   YZ=              0.0000

 P ROCCSD(T)=(MaxCyc=150, Full)/Gen SCF=(maxcycle=400) Pseudo=Read Inte
 =-242.93632\MP4SDQ=-242.8868299\CCSD=-242.8545297\CCSD(T)=-242.902516\
 Normal termination of Gaussian 16 at Fri May  4 12:20:03 2018.
