 Gaussian 16, Revision A.03,
 Gaussian 16:  ES64L-G16RevA.03 25-Dec-2016

 ----------------------------------------------------------------------
 #P ROCCSD(T)=(MaxCyc=150, Full)/Gen SCF=(maxcycle=400) Pseudo=Read Int
 egral(NoXCTest) Pop=Regular MaxDisk=500GB Guess=Read IOp(5/15=2)
 ----------------------------------------------------------------------

 ---
 ZnO
 ---
 Symbolic Z-matrix:
 Charge =  0 Multiplicity = 1

                         Standard orientation:
 ---------------------------------------------------------------------
 Center     Atomic      Atomic             Coordinates (Angstroms)
 Number     Number       Type             X           Y           Z
 ---------------------------------------------------------------------
      1         30           0        0.000000    0.000000    0.421053
      2          8           0        0.000000    0.000000   -1.578947
 ---------------------------------------------------------------------

 SCF Done:  E(ROHF) =  -241.642545570     A.U. after   11 cycles
 E2 =    -0.1364012280D+01 EUMP2 =    -0.24300655785093D+03
 CCSD(T)
 CCSD(T)= -0.24297038825D+03

 The electronic state is 1-SG.
 Alpha  occ. eigenvalues --   -5.91710  -3.98856  -3.98856  -3.98790  -1.17577
 Alpha  occ. eigenvalues --   -0.81691  -0.81691  -0.81616  -0.81616  -0.80903
 Alpha  occ. eigenvalues --   -0.44724  -0.44724  -0.34744
 Alpha virt. eigenvalues --   -0.03847   0.02279   0.02279   0.02613   0.04006
 Alpha virt. eigenvalues --    0.07373   0.07373   0.11619   0.16490   0.16789
 Alpha virt. eigenvalues --    0.17917   0.17917   0.19338   0.19338   0.23259

 Mulliken charges and spin densities:
               1          2
     1  Zn   0.645146   0.000000
     2  O   -0.645146   0.000000
 Sum of Mulliken charges =  -0.00000   0.00000

 Dipole moment (field-independent basis, Debye):
    X=              0.0000    Y=              0.0000    Z=              5.5066  Tot=              5.5066
 Quadrupole moment (field-independent basis, Debye-Ang):
   XX=            -18.7311   YY=            -18.7311   ZZ=            -21.8994
   XY=              0.0000   XZ=              0.0000   YZ=              0.0000

 P ROCCSD(T)=(MaxCyc=150, Full)/Gen SCF=(maxcycle=400) Pseudo=Read Inte
 -0=-243.0065579\MP4SDQ=-242.951914\CCSD=-242.9198814\CCSD(T)=-242.9703
 Normal termination of Gaussian 16 at Fri May  4 14:40:23 2018.
