 Gaussian 16, Revision A.03,
 Gaussian 16:  ES64L-G16RevA.03 25-Dec-2016

 ----------------------------------------------------------------------
 #P ROCCSD(T)=(maxcyc=150, Full, SaveAmplitudes, ReadAmplitudes)/Gen 5d
  7f SCF=(maxcycles=300, VShift=400) Integral(NoXCTest) MaxDisk=500GB P
 op=Full Pseudo=Read Guess=Read IOp(5/15=2)
 ----------------------------------------------------------------------

 ---
 MnH
 ---
 Symbolic Z-matrix:
 Charge =  0 Multiplicity = 7

                         Standard orientation:
 ---------------------------------------------------------------------
 Center     Atomic      Atomic             Coordinates (Angstroms)
 Number     Number       Type             X           Y           Z
 ---------------------------------------------------------------------
      1         25           0        0.000000    0.000000    0.073077
      2          1           0        0.000000    0.000000   -1.826923
 ---------------------------------------------------------------------

 SCF Done:  E(ROHF) =  -103.793228397     A.U. after   31 cycles
 E2 =    -0.5697202392D+00 EUMP2 =    -0.10436294863639D+03
 CCSD(T)
 CCSD(T)= -0.10438641135D+03

 The electronic state is 7-SG.
 Alpha  occ. eigenvalues --   -4.15553  -2.77828  -2.77828  -2.77572  -0.65459
 Alpha  occ. eigenvalues --   -0.65459  -0.64824  -0.64766  -0.64766  -0.39447
 Alpha  occ. eigenvalues --   -0.26738
 Alpha virt. eigenvalues --    0.01105   0.01105   0.02327   0.03120   0.05593
 Alpha virt. eigenvalues --    0.05593   0.08089   0.08413   0.08413   0.08902
 Alpha virt. eigenvalues --    0.08902   0.10164   0.13536   0.18682   0.22493

 Mulliken charges and spin densities:
               1          2
     1  Mn   0.428685   5.956529
     2  H   -0.428685   0.043471
 Sum of Mulliken charges =  -0.00000   6.00000

 Dipole moment (field-independent basis, Debye):
    X=              0.0000    Y=              0.0000    Z=              2.0392  Tot=              2.0392
 Quadrupole moment (field-independent basis, Debye-Ang):
   XX=            -16.3747   YY=            -16.3747   ZZ=            -27.4139
   XY=              0.0000   XZ=              0.0000   YZ=              0.0000

 \\#P ROCCSD(T)=(maxcyc=150, Full, SaveAmplitudes, ReadAmplitudes)/Gen
 4SDQ=-104.3698399\CCSD=-104.3708497\CCSD(T)=-104.3864114\RMSD=8.816e-0
 Normal termination of Gaussian 16 at Thu Apr 19 09:41:13 2018.
