 Gaussian 16, Revision A.03,
 Gaussian 16:  ES64L-G16RevA.03 25-Dec-2016

 ----------------------------------------------------------------------
 #P ROCCSD(T)=(maxcyc=150, Full)/Gen 5d 7f SCF=(maxcycles=300) Integral
 (NoXCTest) MaxDisk=500GB Pop=Regular Pseudo=Read Guess=Read
 ----------------------------------------------------------------------

 ---
 CrH
 ---
 Symbolic Z-matrix:
 Charge =  0 Multiplicity = 6

                         Standard orientation:
 ---------------------------------------------------------------------
 Center     Atomic      Atomic             Coordinates (Angstroms)
 Number     Number       Type             X           Y           Z
 ---------------------------------------------------------------------
      1         24           0        0.000000    0.000000    0.052000
      2          1           0        0.000000    0.000000   -1.248000
 ---------------------------------------------------------------------

 SCF Done:  E(ROHF) =  -86.6399169012     A.U. after   29 cycles
 E2 =    -0.6078926796D+00 EUMP2 =    -0.87247809580801D+02
 CCSD(T)
 CCSD(T)= -0.87273225032D+02

 The electronic state is 6-SG.
 Alpha  occ. eigenvalues --   -3.65176  -2.40489  -2.40489  -2.38189  -0.47214
 Alpha  occ. eigenvalues --   -0.47214  -0.44876  -0.44494  -0.44494  -0.25352
 Alpha virt. eigenvalues --    0.01586   0.01586   0.01664   0.02082   0.04414
 Alpha virt. eigenvalues --    0.05048   0.05048   0.05052   0.05052   0.05454
 Alpha virt. eigenvalues --    0.05454   0.05800   0.08309   0.12211   0.15012

 Mulliken charges and spin densities:
               1          2
     1  Cr   0.396269   4.978541
     2  H   -0.396269   0.021459
 Sum of Mulliken charges =  -0.00000   5.00000

 Dipole moment (field-independent basis, Debye):
    X=              0.0000    Y=              0.0000    Z=              2.0550  Tot=              2.0550
 Quadrupole moment (field-independent basis, Debye-Ang):
   XX=            -16.7351   YY=            -16.7351   ZZ=            -19.6149
   XY=              0.0000   XZ=              0.0000   YZ=              0.0000

 \\#P ROCCSD(T)=(maxcyc=150, Full)/Gen 5d 7f SCF=(maxcycles=300) Integr
 7.2478096\MP4SDQ=-87.2480604\CCSD=-87.2521415\CCSD(T)=-87.273225\RMSD=
 Normal termination of Gaussian 16 at Tue Feb 13 00:07:26 2018.
