 Gaussian 16, Revision A.03,
 Gaussian 16:  ES64L-G16RevA.03 25-Dec-2016

 ----------------------------------------------------------------------
 #P ROCCSD(T)=(MaxCyc=150, Full)/Gen SCF=(maxcycle=400) Pseudo=Read Int
 egral(NoXCTest) Pop=Regular MaxDisk=500GB Guess=Read IOp(5/15=2)
 ----------------------------------------------------------------------

 ---
 ZnO
 ---
 Symbolic Z-matrix:
 Charge =  0 Multiplicity = 1

                         Standard orientation:
 ---------------------------------------------------------------------
 Center     Atomic      Atomic             Coordinates (Angstroms)
 Number     Number       Type             X           Y           Z
 ---------------------------------------------------------------------
      1         30           0        0.000000    0.000000    0.442105
      2          8           0        0.000000    0.000000   -1.657895
 ---------------------------------------------------------------------

 SCF Done:  E(ROHF) =  -241.227957738     A.U. after   12 cycles
 E2 =    -0.1273933905D+01 EUMP2 =    -0.24250189164291D+03
 CCSD(T)
 CCSD(T)= -0.24248018601D+03

 The electronic state is 1-SG.
 Alpha  occ. eigenvalues --   -5.90000  -4.01668  -4.01668  -4.01607  -1.17905
 Alpha  occ. eigenvalues --   -0.81403  -0.81403  -0.81379  -0.81379  -0.80863
 Alpha  occ. eigenvalues --   -0.46055  -0.46055  -0.34232
 Alpha virt. eigenvalues --   -0.03702   0.02435   0.02435   0.02897   0.04364
 Alpha virt. eigenvalues --    0.08284   0.08284   0.12948   0.17308   0.20836
 Alpha virt. eigenvalues --    0.21941   0.21941   0.24887   0.24887   0.30134

 Mulliken charges and spin densities:
               1          2
     1  Zn   0.584986   0.000000
     2  O   -0.584986   0.000000
 Sum of Mulliken charges =  -0.00000   0.00000

 Dipole moment (field-independent basis, Debye):
    X=              0.0000    Y=              0.0000    Z=              5.0711  Tot=              5.0711
 Quadrupole moment (field-independent basis, Debye-Ang):
   XX=            -19.0422   YY=            -19.0422   ZZ=            -21.9437
   XY=              0.0000   XZ=              0.0000   YZ=              0.0000

 P ROCCSD(T)=(MaxCyc=150, Full)/Gen SCF=(maxcycle=400) Pseudo=Read Inte
 0=-242.5018916\MP4SDQ=-242.460161\CCSD=-242.4323982\CCSD(T)=-242.48018
 Normal termination of Gaussian 16 at Fri May  4 12:51:24 2018.
