 Gaussian 16, Revision A.03,
 Gaussian 16:  ES64L-G16RevA.03 25-Dec-2016

 ----------------------------------------------------------------------
 #P ROCCSD(T)=(MaxCyc=150, Full)/Gen SCF=(maxcycle=400) Pseudo=Read Int
 egral(NoXCTest) Pop=Regular MaxDisk=500GB Guess=Read IOp(5/15=2)
 ----------------------------------------------------------------------

 ---
 ZnO
 ---
 Symbolic Z-matrix:
 Charge =  0 Multiplicity = 1

                         Standard orientation:
 ---------------------------------------------------------------------
 Center     Atomic      Atomic             Coordinates (Angstroms)
 Number     Number       Type             X           Y           Z
 ---------------------------------------------------------------------
      1         30           0        0.000000    0.000000    0.442105
      2          8           0        0.000000    0.000000   -1.657895
 ---------------------------------------------------------------------

 SCF Done:  E(ROHF) =  -241.230719979     A.U. after   10 cycles
 E2 =    -0.1340824131D+01 EUMP2 =    -0.24257154410939D+03
 CCSD(T)
 CCSD(T)= -0.24254750007D+03

 The electronic state is 1-SG.
 Alpha  occ. eigenvalues --   -5.89980  -4.01645  -4.01645  -4.01580  -1.17869
 Alpha  occ. eigenvalues --   -0.81386  -0.81386  -0.81365  -0.81365  -0.80842
 Alpha  occ. eigenvalues --   -0.46075  -0.46075  -0.34213
 Alpha virt. eigenvalues --   -0.03686   0.02254   0.02254   0.02648   0.03960
 Alpha virt. eigenvalues --    0.07277   0.07277   0.11482   0.16290   0.16778
 Alpha virt. eigenvalues --    0.17974   0.17974   0.18993   0.18993   0.23300

 Mulliken charges and spin densities:
               1          2
     1  Zn   0.564649   0.000000
     2  O   -0.564649   0.000000
 Sum of Mulliken charges =  -0.00000   0.00000

 Dipole moment (field-independent basis, Debye):
    X=              0.0000    Y=              0.0000    Z=              5.0579  Tot=              5.0579
 Quadrupole moment (field-independent basis, Debye-Ang):
   XX=            -19.0306   YY=            -19.0306   ZZ=            -21.9474
   XY=              0.0000   XZ=              0.0000   YZ=              0.0000

 P ROCCSD(T)=(MaxCyc=150, Full)/Gen SCF=(maxcycle=400) Pseudo=Read Inte
 -242.5715441\MP4SDQ=-242.5248155\CCSD=-242.4971962\CCSD(T)=-242.547500
 Normal termination of Gaussian 16 at Fri May  4 15:08:26 2018.
