 Gaussian 16, Revision A.03,
 Gaussian 16:  ES64L-G16RevA.03 25-Dec-2016

 ----------------------------------------------------------------------
 #P ROCCSD(T)=(maxcyc=150, Full)/Gen 5d 7f SCF=(maxcycles=300) Integral
 (NoXCTest) MaxDisk=500GB Pop=Regular Pseudo=Read IOp(5/15=2) Guess=Rea
 d
 ----------------------------------------------------------------------

 ---
 ScH
 ---
 Symbolic Z-matrix:
 Charge =  0 Multiplicity = 1

                         Standard orientation:
 ---------------------------------------------------------------------
 Center     Atomic      Atomic             Coordinates (Angstroms)
 Number     Number       Type             X           Y           Z
 ---------------------------------------------------------------------
      1         21           0        0.000000    0.000000    0.063636
      2          1           0        0.000000    0.000000   -1.336364
 ---------------------------------------------------------------------

 SCF Done:  E(ROHF) =  -46.7585420008     A.U. after   11 cycles
 E2 =    -0.4290527887D+00 EUMP2 =    -0.47187594789458D+02
 CCSD(T)
 CCSD(T)= -0.47226734531D+02

 The electronic state is 1-SG.
 Alpha  occ. eigenvalues --   -2.68232  -1.63589  -1.61832  -1.61832  -0.45226
 Alpha  occ. eigenvalues --   -0.22052
 Alpha virt. eigenvalues --    0.01290   0.01290   0.01545   0.01906   0.02890
 Alpha virt. eigenvalues --    0.02890   0.02896   0.02896   0.02908   0.04384
 Alpha virt. eigenvalues --    0.04384   0.04492   0.07857   0.08101   0.08101

 Mulliken charges and spin densities:
               1          2
     1  Sc   0.281256   0.000000
     2  H   -0.281256   0.000000
 Sum of Mulliken charges =  -0.00000   0.00000

 Dipole moment (field-independent basis, Debye):
    X=              0.0000    Y=              0.0000    Z=              0.6674  Tot=              0.6674
 Quadrupole moment (field-independent basis, Debye-Ang):
   XX=            -23.2986   YY=            -23.2986   ZZ=            -23.7024
   XY=              0.0000   XZ=              0.0000   YZ=              0.0000

 P ROCCSD(T)=(maxcyc=150, Full)/Gen 5d 7f SCF=(maxcycles=300) Integral(
 P2-0=-47.1875948\MP4SDQ=-47.2085873\CCSD=-47.208106\CCSD(T)=-47.226734
 Normal termination of Gaussian 16 at Tue Feb 13 22:47:33 2018.
