 Gaussian 16, Revision A.03,
 Gaussian 16:  ES64L-G16RevA.03 25-Dec-2016

 ----------------------------------------------------------------------
 #P ROCCSD(T)=(maxcyc=150, Full, SaveAmplitudes, ReadAmplitudes)/Gen 5d
  7f SCF=(maxcycles=300) Integral(NoXCTest) MaxDisk=500GB Pop=Regular P
 seudo=Read Guess=Read
 ----------------------------------------------------------------------

 ---
 TiO
 ---
 Symbolic Z-matrix:
 Charge =  0 Multiplicity = 3

                         Standard orientation:
 ---------------------------------------------------------------------
 Center     Atomic      Atomic             Coordinates (Angstroms)
 Number     Number       Type             X           Y           Z
 ---------------------------------------------------------------------
      1         22           0        0.000000    0.000000    0.453333
      2          8           0        0.000000    0.000000   -1.246667
 ---------------------------------------------------------------------

 SCF Done:  E(ROHF) =  -73.3907127535     A.U. after   21 cycles
 E2 =    -0.7773381913D+00 EUMP2 =    -0.74168050944746D+02
 CCSD(T)
 CCSD(T)= -0.74198071305D+02

 Unable to determine electronic state:  an orbital has unidentified symmetry.
 Alpha  occ. eigenvalues --   -3.03659  -1.93702  -1.93702  -1.90698  -1.15488
 Alpha  occ. eigenvalues --   -0.48337  -0.45093  -0.42134  -0.42134  -0.27498
 Alpha virt. eigenvalues --   -0.00045  -0.00045   0.01133   0.02257   0.03376
 Alpha virt. eigenvalues --    0.03376   0.03646   0.03737   0.04145   0.04237
 Alpha virt. eigenvalues --    0.04237   0.04717   0.08272   0.10188   0.11402

 Mulliken charges and spin densities:
               1          2
     1  Ti   1.024413   1.973270
     2  O   -1.024413   0.026730
 Sum of Mulliken charges =  -0.00000   2.00000

 Dipole moment (field-independent basis, Debye):
    X=              0.0000    Y=              0.0000    Z=              5.1029  Tot=              5.1029
 Quadrupole moment (field-independent basis, Debye-Ang):
   XX=            -21.5300   YY=            -21.5300   ZZ=            -29.7858
   XY=              0.0000   XZ=              0.0000   YZ=              0.0000

 \\#P ROCCSD(T)=(maxcyc=150, Full, SaveAmplitudes, ReadAmplitudes)/Gen
 -0=-74.1680509\CCSD=-74.1481132\CCSD(T)=-74.1980713\RMSD=9.776e-10\PG=
 Normal termination of Gaussian 16 at Sat Mar 10 03:43:56 2018.
