 Gaussian 16, Revision A.03,
 Gaussian 16:  ES64L-G16RevA.03 25-Dec-2016

 ----------------------------------------------------------------------
 #P ROCCSD(T)=(maxcyc=150, Full)/Gen 5d 7f SCF=(maxcycles=300) Integral
 (NoXCTest) MaxDisk=500GB Pop=Regular Pseudo=Read IOp(5/15=2) Guess=Rea
 d
 ----------------------------------------------------------------------

 ---
 ScH
 ---
 Symbolic Z-matrix:
 Charge =  0 Multiplicity = 1

                         Standard orientation:
 ---------------------------------------------------------------------
 Center     Atomic      Atomic             Coordinates (Angstroms)
 Number     Number       Type             X           Y           Z
 ---------------------------------------------------------------------
      1         21           0        0.000000    0.000000    0.059091
      2          1           0        0.000000    0.000000   -1.240909
 ---------------------------------------------------------------------

 SCF Done:  E(ROHF) =  -46.7173995472     A.U. after   12 cycles
 E2 =    -0.4198535733D+00 EUMP2 =    -0.47137253120527D+02
 CCSD(T)
 CCSD(T)= -0.47177725713D+02

 The electronic state is 1-SG.
 Alpha  occ. eigenvalues --   -2.69234  -1.62734  -1.59849  -1.59849  -0.46151
 Alpha  occ. eigenvalues --   -0.21697
 Alpha virt. eigenvalues --    0.01341   0.01341   0.01566   0.02195   0.03481
 Alpha virt. eigenvalues --    0.03912   0.03912   0.03934   0.03934   0.04862
 Alpha virt. eigenvalues --    0.04862   0.04986   0.09271   0.10285   0.10285

 Mulliken charges and spin densities:
               1          2
     1  Sc   0.489460   0.000000
     2  H   -0.489460   0.000000
 Sum of Mulliken charges =  -0.00000   0.00000

 Dipole moment (field-independent basis, Debye):
    X=              0.0000    Y=              0.0000    Z=              0.6138  Tot=              0.6138
 Quadrupole moment (field-independent basis, Debye-Ang):
   XX=            -23.5715   YY=            -23.5715   ZZ=            -23.2285
   XY=              0.0000   XZ=              0.0000   YZ=              0.0000

 P ROCCSD(T)=(maxcyc=150, Full)/Gen 5d 7f SCF=(maxcycles=300) Integral(
 PMP2-0=-47.1372531\MP4SDQ=-47.1605383\CCSD=-47.1600051\CCSD(T)=-47.177
 Normal termination of Gaussian 16 at Tue Feb 13 20:24:39 2018.
