 Gaussian 16, Revision A.03,
 Gaussian 16:  ES64L-G16RevA.03 25-Dec-2016

 ----------------------------------------------------------------------
 #P ROCCSD(T)=(maxcyc=150, Full, SaveAmplitudes, ReadAmplitudes)/Gen 5d
  7f SCF=(maxcycles=300, VShift=400) Integral(NoXCTest) MaxDisk=500GB P
 op=Full Pseudo=Read Guess=Read
 ----------------------------------------------------------------------

 ---
 ScO
 ---
 Symbolic Z-matrix:
 Charge =  0 Multiplicity = 2

                         Standard orientation:
 ---------------------------------------------------------------------
 Center     Atomic      Atomic             Coordinates (Angstroms)
 Number     Number       Type             X           Y           Z
 ---------------------------------------------------------------------
      1         21           0        0.000000    0.000000    0.496552
      2          8           0        0.000000    0.000000   -1.303448
 ---------------------------------------------------------------------

 SCF Done:  E(ROHF) =  -61.9313599038     A.U. after   43 cycles
 E2 =    -0.6851585805D+00 EUMP2 =    -0.62616518484242D+02
 CCSD(T)
 CCSD(T)= -0.62647895916D+02

 The electronic state is 2-SG.
 Alpha  occ. eigenvalues --   -2.67865  -1.67937  -1.66849  -1.66849  -1.12054
 Alpha  occ. eigenvalues --   -0.41568  -0.38617  -0.38617  -0.26369
 Alpha virt. eigenvalues --   -0.00455  -0.00455   0.01208   0.02110   0.03277
 Alpha virt. eigenvalues --    0.03277   0.03485   0.03485   0.04251   0.04251
 Alpha virt. eigenvalues --    0.04394   0.04989   0.07069   0.07069   0.10257

 Mulliken charges and spin densities:
               1          2
     1  Sc   1.232519   0.976370
     2  O   -1.232519   0.023630
 Sum of Mulliken charges =  -0.00000   1.00000

 Dipole moment (field-independent basis, Debye):
    X=              0.0000    Y=              0.0000    Z=              5.7344  Tot=              5.7344
 Quadrupole moment (field-independent basis, Debye-Ang):
   XX=            -21.9113   YY=            -21.9113   ZZ=            -33.4985
   XY=             -0.0000   XZ=              0.0000   YZ=             -0.0000

 \\#P ROCCSD(T)=(maxcyc=150, Full, SaveAmplitudes, ReadAmplitudes)/Gen
 UHF=-61.9313599\PMP2-0=-62.6165185\CCSD=-62.6043624\CCSD(T)=-62.647895
 Normal termination of Gaussian 16 at Thu Apr 19 08:00:51 2018.
