 Gaussian 16, Revision A.03,
 Gaussian 16:  ES64L-G16RevA.03 25-Dec-2016

 ----------------------------------------------------------------------
 #P ROCCSD(T)=(MaxCyc=150, Full)/Gen SCF=(maxcycle=400, vshift=200) Pse
 udo=Read Integral(NoXCTest) Pop=Regular MaxDisk=500GB Guess=Read IOp(5
 /15=2)
 ----------------------------------------------------------------------

 ---
 CoH
 ---
 Symbolic Z-matrix:
 Charge =  0 Multiplicity = 3

                         Standard orientation:
 ---------------------------------------------------------------------
 Center     Atomic      Atomic             Coordinates (Angstroms)
 Number     Number       Type             X           Y           Z
 ---------------------------------------------------------------------
      1         27           0        0.000000    0.000000    0.042857
      2          1           0        0.000000    0.000000   -1.157143
 ---------------------------------------------------------------------

 SCF Done:  E(ROHF) =  -145.093448363     A.U. after   64 cycles
 E2 =    -0.8861136457D+00 EUMP2 =    -0.14597956200841D+03
 CCSD(T)
 CCSD(T)= -0.14595664660D+03

 Unable to determine electronic state:  partially filled degenerate orbitals.
 Alpha  occ. eigenvalues --   -4.54322  -2.99103  -2.98670  -2.98670  -0.51955
 Alpha  occ. eigenvalues --   -0.49065  -0.45406  -0.45406  -0.44601  -0.30835
 Alpha virt. eigenvalues --    0.00791   0.02701   0.02701   0.03097   0.05805
 Alpha virt. eigenvalues --    0.09283   0.09283   0.10247   0.11430   0.11470
 Alpha virt. eigenvalues --    0.11473   0.11521   0.11521   0.18737   0.26444

 Mulliken charges and spin densities:
               1          2
     1  Co   0.294641   1.967201
     2  H   -0.294641   0.032799
 Sum of Mulliken charges =   0.00000   2.00000

 Dipole moment (field-independent basis, Debye):
    X=              0.0000    Y=              0.0000    Z=              3.5984  Tot=              3.5984
 Quadrupole moment (field-independent basis, Debye-Ang):
   XX=            -14.0274   YY=            -14.0274   ZZ=            -16.1960
   XY=              0.0000   XZ=              0.0000   YZ=              0.0000

 \\#P ROCCSD(T)=(MaxCyc=150, Full)/Gen SCF=(maxcycle=400, vshift=200) P
 PMP2-0=-145.979562\MP4SDQ=-145.9516642\CCSD=-145.9246195\CCSD(T)=-145.
 Normal termination of Gaussian 16 at Sat Apr 21 22:36:23 2018.
