 Gaussian 16, Revision A.03,
 Gaussian 16:  ES64L-G16RevA.03 25-Dec-2016

 ----------------------------------------------------------------------
 #P ROCCSD(T)=(MaxCyc=150, Full)/Gen SCF=(maxcycle=400, vshift=200) Pse
 udo=Read Integral(NoXCTest) Pop=Regular MaxDisk=500GB Guess=Read IOp(5
 /15=2)
 ----------------------------------------------------------------------

 ---
 CoH
 ---
 Symbolic Z-matrix:
 Charge =  0 Multiplicity = 3

                         Standard orientation:
 ---------------------------------------------------------------------
 Center     Atomic      Atomic             Coordinates (Angstroms)
 Number     Number       Type             X           Y           Z
 ---------------------------------------------------------------------
      1         27           0        0.000000    0.000000    0.042857
      2          1           0        0.000000    0.000000   -1.157143
 ---------------------------------------------------------------------

 SCF Done:  E(ROHF) =  -145.094939828     A.U. after   26 cycles
 E2 =    -0.9478782807D+00 EUMP2 =    -0.14604281810892D+03
 CCSD(T)
 CCSD(T)= -0.14601612689D+03

 Unable to determine electronic state:  partially filled degenerate orbitals.
 Alpha  occ. eigenvalues --   -4.54321  -2.99097  -2.98663  -2.98663  -0.51954
 Alpha  occ. eigenvalues --   -0.49062  -0.45417  -0.45417  -0.44609  -0.30832
 Alpha virt. eigenvalues --    0.00643   0.02389   0.02389   0.02549   0.04826
 Alpha virt. eigenvalues --    0.06540   0.06689   0.06699   0.06857   0.06857
 Alpha virt. eigenvalues --    0.08071   0.08071   0.08483   0.14777   0.19006

 Mulliken charges and spin densities:
               1          2
     1  Co   0.373342   1.951389
     2  H   -0.373342   0.048611
 Sum of Mulliken charges =  -0.00000   2.00000

 Dipole moment (field-independent basis, Debye):
    X=              0.0000    Y=              0.0000    Z=              3.5963  Tot=              3.5963
 Quadrupole moment (field-independent basis, Debye-Ang):
   XX=            -14.0171   YY=            -14.0171   ZZ=            -16.1942
   XY=              0.0000   XZ=              0.0000   YZ=              0.0000

 \\#P ROCCSD(T)=(MaxCyc=150, Full)/Gen SCF=(maxcycle=400, vshift=200) P
 \PMP2-0=-146.0428181\MP4SDQ=-146.007922\CCSD=-145.9818813\CCSD(T)=-146
 Normal termination of Gaussian 16 at Sat Apr 28 21:13:09 2018.
