 Gaussian 16, Revision A.03,
 Gaussian 16:  ES64L-G16RevA.03 25-Dec-2016

 ----------------------------------------------------------------------
 #P ROCCSD(T)=(MaxCyc=150, Full)/Gen SCF=(maxcycle=400, vshift=200) Pse
 udo=Read Integral(NoXCTest) Pop=Regular MaxDisk=500GB Guess=Read IOp(5
 /15=2)
 ----------------------------------------------------------------------

 ---
 CoH
 ---
 Symbolic Z-matrix:
 Charge =  0 Multiplicity = 3

                         Standard orientation:
 ---------------------------------------------------------------------
 Center     Atomic      Atomic             Coordinates (Angstroms)
 Number     Number       Type             X           Y           Z
 ---------------------------------------------------------------------
      1         27           0        0.000000    0.000000    0.042857
      2          1           0        0.000000    0.000000   -1.157143
 ---------------------------------------------------------------------

 SCF Done:  E(ROHF) =  -145.094706229     A.U. after   25 cycles
 E2 =    -0.9277557898D+00 EUMP2 =    -0.14602246201888D+03
 CCSD(T)
 CCSD(T)= -0.14599798920D+03

 Unable to determine electronic state:  partially filled degenerate orbitals.
 Alpha  occ. eigenvalues --   -4.54321  -2.99095  -2.98662  -2.98662  -0.51956
 Alpha  occ. eigenvalues --   -0.49064  -0.45411  -0.45411  -0.44603  -0.30832
 Alpha virt. eigenvalues --    0.00745   0.02467   0.02467   0.02843   0.05612
 Alpha virt. eigenvalues --    0.07020   0.07404   0.07417   0.07540   0.07540
 Alpha virt. eigenvalues --    0.08465   0.08465   0.09770   0.19009   0.21026

 Mulliken charges and spin densities:
               1          2
     1  Co   0.441715   1.998289
     2  H   -0.441715   0.001711
 Sum of Mulliken charges =  -0.00000   2.00000

 Dipole moment (field-independent basis, Debye):
    X=              0.0000    Y=              0.0000    Z=              3.5969  Tot=              3.5969
 Quadrupole moment (field-independent basis, Debye-Ang):
   XX=            -14.0175   YY=            -14.0175   ZZ=            -16.1936
   XY=              0.0000   XZ=              0.0000   YZ=              0.0000

 \\#P ROCCSD(T)=(MaxCyc=150, Full)/Gen SCF=(maxcycle=400, vshift=200) P
 PMP2-0=-146.022462\MP4SDQ=-145.9907693\CCSD=-145.9643492\CCSD(T)=-145.
 Normal termination of Gaussian 16 at Sat Apr 21 23:21:09 2018.
