 Gaussian 16, Revision A.03,
 Gaussian 16:  ES64L-G16RevA.03 25-Dec-2016

 ----------------------------------------------------------------------
 #P ROCCSD(T)=(maxcyc=150, Full, SaveAmplitudes, ReadAmplitudes)/Gen 5d
  7f SCF=(maxcycles=300) Integral(NoXCTest) MaxDisk=500GB Pop=Regular P
 seudo=Read Guess=Read
 ----------------------------------------------------------------------

 ---
 ScO
 ---
 Symbolic Z-matrix:
 Charge =  0 Multiplicity = 2

                         Standard orientation:
 ---------------------------------------------------------------------
 Center     Atomic      Atomic             Coordinates (Angstroms)
 Number     Number       Type             X           Y           Z
 ---------------------------------------------------------------------
      1         21           0        0.000000    0.000000    0.468966
      2          8           0        0.000000    0.000000   -1.231034
 ---------------------------------------------------------------------

 SCF Done:  E(ROHF) =  -62.0596600078     A.U. after   16 cycles
 E2 =    -0.7138539472D+00 EUMP2 =    -0.62773513954948D+02
 CCSD(T)
 CCSD(T)= -0.62800885820D+02

 The electronic state is 2-SG.
 Alpha  occ. eigenvalues --   -2.71815  -1.65876  -1.62934  -1.62934  -1.12529
 Alpha  occ. eigenvalues --   -0.42609  -0.41010  -0.41010  -0.25305
 Alpha virt. eigenvalues --   -0.00074  -0.00074   0.01314   0.02030   0.02699
 Alpha virt. eigenvalues --    0.02699   0.02969   0.02969   0.03223   0.03223
 Alpha virt. eigenvalues --    0.03457   0.04602   0.06776   0.06776   0.09310

 Mulliken charges and spin densities:
               1          2
     1  Sc   1.293149   0.989915
     2  O   -1.293149   0.010085
 Sum of Mulliken charges =   0.00000   1.00000

 Dipole moment (field-independent basis, Debye):
    X=              0.0000    Y=              0.0000    Z=              4.8718  Tot=              4.8718
 Quadrupole moment (field-independent basis, Debye-Ang):
   XX=            -21.8243   YY=            -21.8243   ZZ=            -32.6793
   XY=              0.0000   XZ=              0.0000   YZ=              0.0000

 \\#P ROCCSD(T)=(maxcyc=150, Full, SaveAmplitudes, ReadAmplitudes)/Gen
 6\PMP2-0=-62.773514\CCSD=-62.7588776\CCSD(T)=-62.8008858\RMSD=1.055e-0
 Normal termination of Gaussian 16 at Wed Feb 21 05:03:04 2018.
