 Gaussian 16, Revision A.03,
 Gaussian 16:  ES64L-G16RevA.03 25-Dec-2016

 ----------------------------------------------------------------------
 #P ROCCSD(T)=(MaxCyc=150, Full)/Gen SCF=(maxcycle=400, vshift=200) Int
 egral(DKHSO, NoXCTest) Pop=Regular MaxDisk=500GB Guess=Read IOp(5/15=2
 )
 ----------------------------------------------------------------------

 ---
 CuH
 ---
 Symbolic Z-matrix:
 Charge =  0 Multiplicity = 1

                         Standard orientation:
 ---------------------------------------------------------------------
 Center     Atomic      Atomic             Coordinates (Angstroms)
 Number     Number       Type             X           Y           Z
 ---------------------------------------------------------------------
      1         29           0        0.000000    0.000000    0.040000
      2          1           0        0.000000    0.000000   -1.160000
 ---------------------------------------------------------------------

 SCF Done:  E(ROHF) =  -1653.67584739     A.U. after   17 cycles
 E2 =    -0.1534472629D+01 EUMP2 =    -0.16552103200219D+04
 CCSD(T)
 CCSD(T)= -0.16551007081D+04

 The electronic state is 1-SG.
 Alpha  occ. eigenvalues -- -332.52661 -41.70686 -35.84647 -35.84458 -35.84458
 Alpha  occ. eigenvalues --   -5.20077  -3.41409  -3.39791  -3.39791  -0.55957
 Alpha  occ. eigenvalues --   -0.52663  -0.52663  -0.51346  -0.51346  -0.33506
 Alpha virt. eigenvalues --    0.00684   0.02967   0.02967   0.03322   0.06013
 Alpha virt. eigenvalues --    0.10071   0.10298   0.10298   0.17266   0.19279
 Alpha virt. eigenvalues --    0.19279   0.20584   0.20584   0.22202   0.25997

 Mulliken charges and spin densities:
               1          2
     1  Cu   0.324452   0.000000
     2  H   -0.324452   0.000000
 Sum of Mulliken charges =   0.00000   0.00000

 Dipole moment (field-independent basis, Debye):
    X=              0.0000    Y=              0.0000    Z=              3.3487  Tot=              3.3487
 Quadrupole moment (field-independent basis, Debye-Ang):
   XX=            -14.2090   YY=            -14.2090   ZZ=            -14.8379
   XY=              0.0000   XZ=              0.0000   YZ=              0.0000

 P ROCCSD(T)=(MaxCyc=150, Full)/Gen SCF=(maxcycle=400, vshift=200) Inte
 Normal termination of Gaussian 16 at Wed Apr  4 19:21:59 2018.
