 Gaussian 16, Revision A.03,
 Gaussian 16:  ES64L-G16RevA.03 25-Dec-2016

 ----------------------------------------------------------------------
 #P ROCCSD(T)=(MaxCyc=150, Full)/Gen SCF=(maxcycle=400) Pseudo=Read Int
 egral(NoXCTest) Pop=Regular MaxDisk=500GB Guess=Read IOp(5/15=2)
 ----------------------------------------------------------------------

 --
 Fe
 --
 Symbolic Z-matrix:
 Charge =  0 Multiplicity = 5

                         Standard orientation:
 ---------------------------------------------------------------------
 Center     Atomic      Atomic             Coordinates (Angstroms)
 Number     Number       Type             X           Y           Z
 ---------------------------------------------------------------------
      1         26           0        0.000000    0.000000    0.000000
 ---------------------------------------------------------------------

 SCF Done:  E(ROHF) =  -122.647298477     A.U. after   12 cycles
 E2 =    -0.7030997332D+00 EUMP2 =    -0.12335039821035D+03
 CCSD(T)
 CCSD(T)= -0.12336246584D+03

 Unable to determine electronic state:  an orbital has unidentified symmetry.
 Alpha  occ. eigenvalues --   -4.46251  -3.04113  -2.96334  -2.96333  -0.70140
 Alpha  occ. eigenvalues --   -0.69136  -0.69136  -0.65990  -0.60842  -0.27556
 Alpha virt. eigenvalues --    0.01752   0.01913   0.01913   0.02199   0.05704
 Alpha virt. eigenvalues --    0.06056   0.06056   0.06210   0.06215   0.06215
 Alpha virt. eigenvalues --    0.06230   0.06238   0.10786   0.19088   0.19399

 Mulliken charges and spin densities:
               1          2
     1  Fe  -0.000000   4.000000
 Sum of Mulliken charges =  -0.00000   4.00000

 Dipole moment (field-independent basis, Debye):
    X=              0.0000    Y=              0.0000    Z=              0.0000  Tot=              0.0000
 Quadrupole moment (field-independent basis, Debye-Ang):
   XX=            -18.0812   YY=            -18.0812   ZZ=            -17.8212
   XY=              0.0000   XZ=              0.0000   YZ=             -0.0000

 1\1\GINC-C417-024\SP\ROCCSD(T)-Full\Gen\Fe1(5)\GWANG18\17-Apr-2018\0\\
 #P ROCCSD(T)=(MaxCyc=150, Full)/Gen SCF=(maxcycle=400) Pseudo=Read Int
 egral(NoXCTest) Pop=Regular MaxDisk=500GB Guess=Read IOp(5/15=2)\\Fe\\
 0,5\Fe,0,0.,0.,0.\\Version=ES64L-G16RevA.03\HF=-122.6472985\MP2=-123.3
 503982\MP3=-123.333655\PUHF=-122.6472985\PMP2-0=-123.3503982\MP4SDQ=-1
 23.3420787\CCSD=-123.3406764\CCSD(T)=-123.3624658\RMSD=8.236e-09\PG=OH
  [O(Fe1)]\\@

 Normal termination of Gaussian 16 at Tue Apr 17 22:56:10 2018.
