 Gaussian 16, Revision A.03,
 Gaussian 16:  ES64L-G16RevA.03 25-Dec-2016

 ----------------------------------------------------------------------
 #P ROCCSD(T)=(MaxCyc=150, Full)/Gen SCF=(maxcycle=400) Pseudo=Read Int
 egral(NoXCTest) Pop=Regular MaxDisk=500GB Guess=Read IOp(5/15=2)
 ----------------------------------------------------------------------

 --
 Fe
 --
 Symbolic Z-matrix:
 Charge =  0 Multiplicity = 5

                         Standard orientation:
 ---------------------------------------------------------------------
 Center     Atomic      Atomic             Coordinates (Angstroms)
 Number     Number       Type             X           Y           Z
 ---------------------------------------------------------------------
      1         26           0        0.000000    0.000000    0.000000
 ---------------------------------------------------------------------

 SCF Done:  E(ROHF) =  -122.647149062     A.U. after   12 cycles
 E2 =    -0.6901353240D+00 EUMP2 =    -0.12333728438585D+03
 CCSD(T)
 CCSD(T)= -0.12335103344D+03

 Unable to determine electronic state:  an orbital has unidentified symmetry.
 Alpha  occ. eigenvalues --   -4.46250  -3.04114  -2.96335  -2.96335  -0.70140
 Alpha  occ. eigenvalues --   -0.69136  -0.69136  -0.65991  -0.60838  -0.27556
 Alpha virt. eigenvalues --    0.01783   0.01950   0.01950   0.02705   0.05923
 Alpha virt. eigenvalues --    0.06285   0.06285   0.06763   0.06769   0.06769
 Alpha virt. eigenvalues --    0.06788   0.06797   0.14340   0.20360   0.20921

 Mulliken charges and spin densities:
               1          2
     1  Fe   0.000000   4.000000
 Sum of Mulliken charges =   0.00000   4.00000

 Dipole moment (field-independent basis, Debye):
    X=              0.0000    Y=              0.0000    Z=              0.0000  Tot=              0.0000
 Quadrupole moment (field-independent basis, Debye-Ang):
   XX=            -17.8218   YY=            -18.0822   ZZ=            -18.0822
   XY=              0.0000   XZ=             -0.0000   YZ=              0.0000

 1\1\GINC-C417-024\SP\ROCCSD(T)-Full\Gen\Fe1(5)\GWANG18\17-Apr-2018\0\\
 #P ROCCSD(T)=(MaxCyc=150, Full)/Gen SCF=(maxcycle=400) Pseudo=Read Int
 egral(NoXCTest) Pop=Regular MaxDisk=500GB Guess=Read IOp(5/15=2)\\Fe\\
 0,5\Fe,0,0.,0.,0.\\Version=ES64L-G16RevA.03\HF=-122.6471491\MP2=-123.3
 372844\MP3=-123.322427\PUHF=-122.6471491\PMP2-0=-123.3372844\MP4SDQ=-1
 23.3311421\CCSD=-123.3296497\CCSD(T)=-123.3510334\RMSD=5.564e-09\PG=OH
  [O(Fe1)]\\@

 Normal termination of Gaussian 16 at Tue Apr 17 22:09:05 2018.
