 Gaussian 16, Revision A.03,
 Gaussian 16:  ES64L-G16RevA.03 25-Dec-2016

 ----------------------------------------------------------------------
 #P ROCCSD(T)=(MaxCyc=150, Full)/Gen SCF=(maxcycle=400) Pseudo=Read Int
 egral(NoXCTest) Pop=Regular MaxDisk=500GB Guess=Read IOp(5/15=2)
 ----------------------------------------------------------------------

 --
 Fe
 --
 Symbolic Z-matrix:
 Charge =  0 Multiplicity = 5

                         Standard orientation:
 ---------------------------------------------------------------------
 Center     Atomic      Atomic             Coordinates (Angstroms)
 Number     Number       Type             X           Y           Z
 ---------------------------------------------------------------------
      1         26           0        0.000000    0.000000    0.000000
 ---------------------------------------------------------------------

 SCF Done:  E(ROHF) =  -122.646267666     A.U. after   12 cycles
 E2 =    -0.6576431259D+00 EUMP2 =    -0.12330391079170D+03
 CCSD(T)
 CCSD(T)= -0.12331895250D+03

 Unable to determine electronic state:  an orbital has unidentified symmetry.
 Alpha  occ. eigenvalues --   -4.46256  -3.04126  -2.96346  -2.96346  -0.70137
 Alpha  occ. eigenvalues --   -0.69133  -0.69133  -0.65991  -0.60834  -0.27560
 Alpha virt. eigenvalues --    0.01884   0.02073   0.02073   0.02825   0.06701
 Alpha virt. eigenvalues --    0.07098   0.07098   0.10061   0.10074   0.10074
 Alpha virt. eigenvalues --    0.10117   0.10145   0.14876   0.25094   0.25787

 Mulliken charges and spin densities:
               1          2
     1  Fe   0.000000   4.000000
 Sum of Mulliken charges =   0.00000   4.00000

 Dipole moment (field-independent basis, Debye):
    X=              0.0000    Y=              0.0000    Z=              0.0000  Tot=              0.0000
 Quadrupole moment (field-independent basis, Debye-Ang):
   XX=            -18.0838   YY=            -17.8216   ZZ=            -18.0838
   XY=             -0.0000   XZ=              0.0000   YZ=              0.0000

 1\1\GINC-C417-024\SP\ROCCSD(T)-Full\Gen\Fe1(5)\GWANG18\17-Apr-2018\0\\
 #P ROCCSD(T)=(MaxCyc=150, Full)/Gen SCF=(maxcycle=400) Pseudo=Read Int
 egral(NoXCTest) Pop=Regular MaxDisk=500GB Guess=Read IOp(5/15=2)\\Fe\\
 0,5\Fe,0,0.,0.,0.\\Version=ES64L-G16RevA.03\HF=-122.6462677\MP2=-123.3
 039108\MP3=-123.2906905\PUHF=-122.6462677\PMP2-0=-123.3039108\MP4SDQ=-
 123.3003129\CCSD=-123.2986868\CCSD(T)=-123.3189525\RMSD=6.098e-09\PG=O
 H [O(Fe1)]\\@

 Normal termination of Gaussian 16 at Tue Apr 17 21:47:32 2018.
