 Gaussian 16, Revision A.03,
 Gaussian 16:  ES64L-G16RevA.03 25-Dec-2016

 ----------------------------------------------------------------------
 #P ROCCSD(T)=(MaxCyc=150, Full)/Gen SCF=(maxcycle=400) Pseudo=Read Int
 egral(NoXCTest) Pop=Regular MaxDisk=500GB Guess=Read IOp(5/15=2)
 ----------------------------------------------------------------------

 --
 Cu
 --
 Symbolic Z-matrix:
 Charge =  0 Multiplicity = 2

                         Standard orientation:
 ---------------------------------------------------------------------
 Center     Atomic      Atomic             Coordinates (Angstroms)
 Number     Number       Type             X           Y           Z
 ---------------------------------------------------------------------
      1         29           0        0.000000    0.000000    0.000000
 ---------------------------------------------------------------------

 SCF Done:  E(ROHF) =  -196.176444152     A.U. after   12 cycles
 E2 =    -0.1112150730D+01 EUMP2 =    -0.19728859488174D+03
 CCSD(T)
 CCSD(T)= -0.19720523514D+03

 The electronic state is 2-A1G.
 Alpha  occ. eigenvalues --   -5.22316  -3.42417  -3.42417  -3.42417  -0.48321
 Alpha  occ. eigenvalues --   -0.48321  -0.48321  -0.48321  -0.48321  -0.24478
 Alpha virt. eigenvalues --    0.02247   0.02247   0.02247   0.02715   0.07501
 Alpha virt. eigenvalues --    0.07501   0.07501   0.12338   0.12338   0.12338
 Alpha virt. eigenvalues --    0.12338   0.12338   0.13377   0.24307   0.24307

 Mulliken charges and spin densities:
               1          2
     1  Cu  -0.000000   1.000000
 Sum of Mulliken charges =  -0.00000   1.00000

 Dipole moment (field-independent basis, Debye):
    X=              0.0000    Y=              0.0000    Z=              0.0000  Tot=              0.0000
 Quadrupole moment (field-independent basis, Debye-Ang):
   XX=            -14.0116   YY=            -14.0116   ZZ=            -14.0116
   XY=              0.0000   XZ=             -0.0000   YZ=              0.0000

 1\1\GINC-C406-053\SP\ROCCSD(T)-Full\Gen\Cu1(2)\GWANG18\05-May-2018\0\\
 #P ROCCSD(T)=(MaxCyc=150, Full)/Gen SCF=(maxcycle=400) Pseudo=Read Int
 egral(NoXCTest) Pop=Regular MaxDisk=500GB Guess=Read IOp(5/15=2)\\Cu\\
 0,2\Cu,0,0.,0.,0.\\Version=ES64L-G16RevA.03\State=2-A1G\HF=-196.176444
 2\MP2=-197.2885949\MP3=-197.0961072\PUHF=-196.1764442\PMP2-0=-197.2885
 949\MP4SDQ=-197.2328651\CCSD=-197.1694969\CCSD(T)=-197.2052351\RMSD=2.
 061e-09\PG=OH [O(Cu1)]\\@

 Normal termination of Gaussian 16 at Sat May  5 21:56:28 2018.
