 Gaussian 16, Revision A.03,
 Gaussian 16:  ES64L-G16RevA.03 25-Dec-2016

 ----------------------------------------------------------------------
 #P ROCCSD(T)=(MaxCyc=150, Full)/Gen SCF=(maxcycle=400) Pseudo=Read Int
 egral(NoXCTest) Pop=Regular MaxDisk=500GB Guess=Read IOp(5/15=2)
 ----------------------------------------------------------------------

 --
 Cu
 --
 Symbolic Z-matrix:
 Charge =  0 Multiplicity = 2

                         Standard orientation:
 ---------------------------------------------------------------------
 Center     Atomic      Atomic             Coordinates (Angstroms)
 Number     Number       Type             X           Y           Z
 ---------------------------------------------------------------------
      1         29           0        0.000000    0.000000    0.000000
 ---------------------------------------------------------------------

 SCF Done:  E(ROHF) =  -196.176395340     A.U. after   11 cycles
 E2 =    -0.1087474923D+01 EUMP2 =    -0.19726387026278D+03
 CCSD(T)
 CCSD(T)= -0.19718245556D+03

 The electronic state is 2-A1G.
 Alpha  occ. eigenvalues --   -5.22316  -3.42417  -3.42417  -3.42417  -0.48321
 Alpha  occ. eigenvalues --   -0.48321  -0.48321  -0.48321  -0.48321  -0.24478
 Alpha virt. eigenvalues --    0.02298   0.02298   0.02298   0.03409   0.07805
 Alpha virt. eigenvalues --    0.07805   0.07805   0.13691   0.13691   0.13691
 Alpha virt. eigenvalues --    0.13691   0.13691   0.18279   0.25961   0.25961

 Mulliken charges and spin densities:
               1          2
     1  Cu  -0.000000   1.000000
 Sum of Mulliken charges =  -0.00000   1.00000

 Dipole moment (field-independent basis, Debye):
    X=              0.0000    Y=              0.0000    Z=              0.0000  Tot=              0.0000
 Quadrupole moment (field-independent basis, Debye-Ang):
   XX=            -14.0118   YY=            -14.0118   ZZ=            -14.0118
   XY=             -0.0000   XZ=             -0.0000   YZ=              0.0000

 1\1\GINC-C473-132\SP\ROCCSD(T)-Full\Gen\Cu1(2)\GWANG18\26-Mar-2018\0\\
 #P ROCCSD(T)=(MaxCyc=150, Full)/Gen SCF=(maxcycle=400) Pseudo=Read Int
 egral(NoXCTest) Pop=Regular MaxDisk=500GB Guess=Read IOp(5/15=2)\\Cu\\
 0,2\Cu,0,0.,0.,0.\\Version=ES64L-G16RevA.03\State=2-A1G\HF=-196.176395
 3\MP2=-197.2638703\MP3=-197.073559\PUHF=-196.1763953\PMP2-0=-197.26387
 03\MP4SDQ=-197.2112337\CCSD=-197.1474415\CCSD(T)=-197.1824556\RMSD=2.0
 47e-10\PG=OH [O(Cu1)]\\@

 Normal termination of Gaussian 16 at Mon Mar 26 23:30:47 2018.
