 Gaussian 16, Revision A.03,
 Gaussian 16:  ES64L-G16RevA.03 25-Dec-2016

 ----------------------------------------------------------------------
 #P ROCCSD(T)=(MaxCyc=150, Full)/Gen SCF=(maxcycle=400) Pseudo=Read Int
 egral(NoXCTest) Pop=Regular MaxDisk=500GB Guess=Read IOp(5/15=2)
 ----------------------------------------------------------------------

 --
 Cu
 --
 Symbolic Z-matrix:
 Charge =  0 Multiplicity = 2

                         Standard orientation:
 ---------------------------------------------------------------------
 Center     Atomic      Atomic             Coordinates (Angstroms)
 Number     Number       Type             X           Y           Z
 ---------------------------------------------------------------------
      1         29           0        0.000000    0.000000    0.000000
 ---------------------------------------------------------------------

 SCF Done:  E(ROHF) =  -196.175294204     A.U. after   10 cycles
 E2 =    -0.1036537256D+01 EUMP2 =    -0.19721183146016D+03
 CCSD(T)
 CCSD(T)= -0.19713111181D+03

 The electronic state is 2-A1G.
 Alpha  occ. eigenvalues --   -5.22324  -3.42433  -3.42433  -3.42433  -0.48325
 Alpha  occ. eigenvalues --   -0.48325  -0.48325  -0.48325  -0.48325  -0.24488
 Alpha virt. eigenvalues --    0.02474   0.02474   0.02474   0.03530   0.08985
 Alpha virt. eigenvalues --    0.08985   0.08985   0.18774   0.19896   0.19896
 Alpha virt. eigenvalues --    0.19896   0.19896   0.19896   0.33036   0.33036

 Mulliken charges and spin densities:
               1          2
     1  Cu  -0.000000   1.000000
 Sum of Mulliken charges =  -0.00000   1.00000

 Dipole moment (field-independent basis, Debye):
    X=              0.0000    Y=              0.0000    Z=              0.0000  Tot=              0.0000
 Quadrupole moment (field-independent basis, Debye-Ang):
   XX=            -14.0124   YY=            -14.0124   ZZ=            -14.0124
   XY=             -0.0000   XZ=             -0.0000   YZ=             -0.0000

 1\1\GINC-C473-132\SP\ROCCSD(T)-Full\Gen\Cu1(2)\GWANG18\26-Mar-2018\0\\
 #P ROCCSD(T)=(MaxCyc=150, Full)/Gen SCF=(maxcycle=400) Pseudo=Read Int
 egral(NoXCTest) Pop=Regular MaxDisk=500GB Guess=Read IOp(5/15=2)\\Cu\\
 0,2\Cu,0,0.,0.,0.\\Version=ES64L-G16RevA.03\State=2-A1G\HF=-196.175294
 2\MP2=-197.2118315\MP3=-197.0230295\PUHF=-196.1752942\PMP2-0=-197.2118
 315\MP4SDQ=-197.1626087\CCSD=-197.0981411\CCSD(T)=-197.1311118\RMSD=2.
 830e-09\PG=OH [O(Cu1)]\\@

 Normal termination of Gaussian 16 at Mon Mar 26 23:03:59 2018.
