 Gaussian 16, Revision A.03,
 Gaussian 16:  ES64L-G16RevA.03 25-Dec-2016

 ----------------------------------------------------------------------
 #P ROCCSD(T)=(maxcyc=150, Full, SaveAmplitudes, ReadAmplitudes)/Gen 5d
  7f SCF=(maxcycles=300) Integral(NoXCTest) MaxDisk=500GB Pop=Regular P
 seudo=Read Guess=Read
 ----------------------------------------------------------------------

 ---
 CrH
 ---
 Symbolic Z-matrix:
 Charge =  0 Multiplicity = 6

                         Standard orientation:
 ---------------------------------------------------------------------
 Center     Atomic      Atomic             Coordinates (Angstroms)
 Number     Number       Type             X           Y           Z
 ---------------------------------------------------------------------
      1         24           0        0.000000    0.000000    0.076000
      2          1           0        0.000000    0.000000   -1.824000
 ---------------------------------------------------------------------

 SCF Done:  E(ROHF) =  -86.8781409065     A.U. after   22 cycles
 E2 =    -0.5521551395D+00 EUMP2 =    -0.87430296046086D+02
 CCSD(T)
 CCSD(T)= -0.87480821126D+02

 The electronic state is 6-SG.
 Alpha  occ. eigenvalues --   -3.76945  -2.46868  -2.46868  -2.41912  -0.57203
 Alpha  occ. eigenvalues --   -0.57203  -0.53734  -0.53734  -0.38766  -0.26601
 Alpha virt. eigenvalues --    0.01100   0.01100   0.01894   0.02471   0.04575
 Alpha virt. eigenvalues --    0.04871   0.04871   0.05292   0.05292   0.05657
 Alpha virt. eigenvalues --    0.05657   0.06785   0.09612   0.12287   0.16329

 Mulliken charges and spin densities:
               1          2
     1  Cr   0.326145   4.976394
     2  H   -0.326145   0.023606
 Sum of Mulliken charges =  -0.00000   5.00000

 Dipole moment (field-independent basis, Debye):
    X=              0.0000    Y=              0.0000    Z=              2.6930  Tot=              2.6930
 Quadrupole moment (field-independent basis, Debye-Ang):
   XX=            -17.0650   YY=            -17.0650   ZZ=            -25.9208
   XY=              0.0000   XZ=              0.0000   YZ=              0.0000

 \\#P ROCCSD(T)=(maxcyc=150, Full, SaveAmplitudes, ReadAmplitudes)/Gen
 81409\PMP2-0=-87.430296\CCSD=-87.4642483\CCSD(T)=-87.4808211\RMSD=3.36
 Normal termination of Gaussian 16 at Mon Feb 26 16:11:29 2018.
