 Gaussian 16, Revision A.03,
 Gaussian 16:  ES64L-G16RevA.03 25-Dec-2016

 ----------------------------------------------------------------------
 #P ROCCSD(T)=(maxcyc=150, Full, SaveAmplitudes, ReadAmplitudes)/Gen 5d
  7f SCF=(maxcycles=300) Integral(NoXCTest) MaxDisk=500GB Pop=Regular P
 seudo=Read Guess=Read
 ----------------------------------------------------------------------

 ---
 CrO
 ---
 Symbolic Z-matrix:
 Charge =  0 Multiplicity = 5

                         Standard orientation:
 ---------------------------------------------------------------------
 Center     Atomic      Atomic             Coordinates (Angstroms)
 Number     Number       Type             X           Y           Z
 ---------------------------------------------------------------------
      1         24           0        0.000000    0.000000    0.425000
      2          8           0        0.000000    0.000000   -1.275000
 ---------------------------------------------------------------------

 SCF Done:  E(ROHF) =  -102.020998222     A.U. after   27 cycles
 E2 =    -0.9091732497D+00 EUMP2 =    -0.10293017147201D+03
 CCSD(T)
 CCSD(T)= -0.10297119710D+03

 Unable to determine electronic state:  an orbital has unidentified symmetry.
 Alpha  occ. eigenvalues --   -3.75932  -2.47408  -2.42696  -2.41556  -1.10948
 Alpha  occ. eigenvalues --   -0.56361  -0.56214  -0.54487  -0.49836  -0.36679
 Alpha  occ. eigenvalues --   -0.34019  -0.32926
 Alpha virt. eigenvalues --   -0.03337   0.00811   0.01382   0.01755   0.03129
 Alpha virt. eigenvalues --    0.04647   0.05254   0.05255   0.05685   0.05966
 Alpha virt. eigenvalues --    0.06098   0.06650   0.11162   0.11467   0.13691

 Mulliken charges and spin densities:
               1          2
     1  Cr   1.117582   3.920635
     2  O   -1.117582   0.079365
 Sum of Mulliken charges =  -0.00000   4.00000

 Dipole moment (field-independent basis, Debye):
    X=              0.0000    Y=              0.0000    Z=              8.8076  Tot=              8.8076
 Quadrupole moment (field-independent basis, Debye-Ang):
   XX=            -19.6456   YY=            -18.6508   ZZ=            -23.0767
   XY=              0.0000   XZ=              0.0000   YZ=              0.0000

 \\#P ROCCSD(T)=(maxcyc=150, Full, SaveAmplitudes, ReadAmplitudes)/Gen
 MP2-0=-102.9301715\CCSD=-102.9184292\CCSD(T)=-102.9711971\RMSD=6.021e-
 Normal termination of Gaussian 16 at Tue Mar 13 08:20:37 2018.
