 Gaussian 16, Revision A.03,
 Gaussian 16:  ES64L-G16RevA.03 25-Dec-2016

 ----------------------------------------------------------------------
 #P ROCCSD(T)=(MaxCyc=150, Full)/Gen SCF=(maxcycle=400) Pseudo=Read Int
 egral(NoXCTest) Pop=Regular MaxDisk=500GB Guess=Read IOp(5/15=2)
 ----------------------------------------------------------------------

 ---
 CoO
 ---
 Symbolic Z-matrix:
 Charge =  0 Multiplicity = 4

                         Standard orientation:
 ---------------------------------------------------------------------
 Center     Atomic      Atomic             Coordinates (Angstroms)
 Number     Number       Type             X           Y           Z
 ---------------------------------------------------------------------
      1         27           0        0.000000    0.000000    0.297143
      2          8           0        0.000000    0.000000   -1.002857
 ---------------------------------------------------------------------

 SCF Done:  E(ROHF) =  -160.499708456     A.U. after   26 cycles
 E2 =    -0.1138931268D+01 EUMP2 =    -0.16163863972416D+03
 CCSD(T)
 CCSD(T)= -0.16162563407D+03

 Unable to determine electronic state:  partially filled degenerate orbitals.
 Alpha  occ. eigenvalues --   -4.92582  -3.30297  -3.26293  -3.26293  -1.32534
 Alpha  occ. eigenvalues --   -0.85144  -0.85144  -0.77213  -0.72179  -0.70969
 Alpha  occ. eigenvalues --   -0.47348  -0.47348  -0.34509
 Alpha virt. eigenvalues --   -0.00134   0.02836   0.02836   0.03674   0.04319
 Alpha virt. eigenvalues --    0.09131   0.09131   0.10684   0.11260   0.11285
 Alpha virt. eigenvalues --    0.11580   0.11580   0.13593   0.17457   0.25855

 Mulliken charges and spin densities:
               1          2
     1  Co   0.790218   2.706181
     2  O   -0.790218   0.293819
 Sum of Mulliken charges =  -0.00000   3.00000

 Dipole moment (field-independent basis, Debye):
    X=              0.0000    Y=              0.0000    Z=              3.8169  Tot=              3.8169
 Quadrupole moment (field-independent basis, Debye-Ang):
   XX=            -19.5428   YY=            -19.5428   ZZ=            -19.9703
   XY=              0.0000   XZ=              0.0000   YZ=              0.0000

 \\#P ROCCSD(T)=(MaxCyc=150, Full)/Gen SCF=(maxcycle=400) Pseudo=Read I
 .6386397\MP4SDQ=-161.6015751\CCSD=-161.5752538\CCSD(T)=-161.6256341\RM
 Normal termination of Gaussian 16 at Sat Mar 31 17:50:09 2018.
