 Gaussian 16, Revision A.03,
 Gaussian 16:  ES64L-G16RevA.03 25-Dec-2016

 ----------------------------------------------------------------------
 #P ROCCSD(T)=(MaxCyc=150, Full)/Gen SCF=(maxcycle=400) Pseudo=Read Int
 egral(NoXCTest) Pop=Regular MaxDisk=500GB Guess=Read IOp(5/15=2)
 ----------------------------------------------------------------------

 ---
 CoO
 ---
 Symbolic Z-matrix:
 Charge =  0 Multiplicity = 4

                         Standard orientation:
 ---------------------------------------------------------------------
 Center     Atomic      Atomic             Coordinates (Angstroms)
 Number     Number       Type             X           Y           Z
 ---------------------------------------------------------------------
      1         27           0        0.000000    0.000000    0.297143
      2          8           0        0.000000    0.000000   -1.002857
 ---------------------------------------------------------------------

 SCF Done:  E(ROHF) =  -160.503982521     A.U. after   17 cycles
 E2 =    -0.1191149422D+01 EUMP2 =    -0.16169513194286D+03
 CCSD(T)
 CCSD(T)= -0.16167982294D+03

 Unable to determine electronic state:  partially filled degenerate orbitals.
 Alpha  occ. eigenvalues --   -4.92579  -3.30274  -3.26286  -3.26286  -1.32476
 Alpha  occ. eigenvalues --   -0.85156  -0.85156  -0.77218  -0.72188  -0.70965
 Alpha  occ. eigenvalues --   -0.47368  -0.47368  -0.34492
 Alpha virt. eigenvalues --   -0.00153   0.02552   0.02552   0.03366   0.04054
 Alpha virt. eigenvalues --    0.07101   0.07101   0.07202   0.07357   0.07364
 Alpha virt. eigenvalues --    0.09122   0.09122   0.12000   0.16336   0.21657

 Mulliken charges and spin densities:
               1          2
     1  Co   0.762859   2.710437
     2  O   -0.762859   0.289563
 Sum of Mulliken charges =  -0.00000   3.00000

 Dipole moment (field-independent basis, Debye):
    X=              0.0000    Y=              0.0000    Z=              3.8046  Tot=              3.8046
 Quadrupole moment (field-independent basis, Debye-Ang):
   XX=            -19.5439   YY=            -19.5439   ZZ=            -19.9556
   XY=              0.0000   XZ=              0.0000   YZ=              0.0000

 \\#P ROCCSD(T)=(MaxCyc=150, Full)/Gen SCF=(maxcycle=400) Pseudo=Read I
 .6951319\MP4SDQ=-161.6527222\CCSD=-161.6271638\CCSD(T)=-161.6798229\RM
 Normal termination of Gaussian 16 at Sat Mar 31 19:50:55 2018.
