 Gaussian 16, Revision A.03,
 Gaussian 16:  ES64L-G16RevA.03 25-Dec-2016

 ----------------------------------------------------------------------
 #P ROHF/Gen 5d 7f SCF=(maxcycles=300) Integral(NoXCTest) MaxDisk=500GB
  Pop=Regular Pseudo=Read
 ----------------------------------------------------------------------

 ---
 ScO
 ---
 Symbolic Z-matrix:
 Charge =  0 Multiplicity = 2

                         Standard orientation:
 ---------------------------------------------------------------------
 Center     Atomic      Atomic             Coordinates (Angstroms)
 Number     Number       Type             X           Y           Z
 ---------------------------------------------------------------------
      1         21           0        0.000000    0.000000    0.468966
      2          8           0        0.000000    0.000000   -1.231034
 ---------------------------------------------------------------------

 SCF Done:  E(ROHF) =  -61.9316431116     A.U. after   17 cycles

 The electronic state is 2-SG.
 Alpha  occ. eigenvalues --   -2.64981  -1.66103  -1.63543  -1.63543  -1.12546
 Alpha  occ. eigenvalues --   -0.42540  -0.41049  -0.41049  -0.08153
 Alpha virt. eigenvalues --    0.00771   0.00771   0.01624   0.02384   0.03626
 Alpha virt. eigenvalues --    0.03626   0.04032   0.04032   0.04318   0.04318
 Alpha virt. eigenvalues --    0.04452   0.06132   0.08584   0.08584   0.10899

 Mulliken charges and spin densities:
               1          2
     1  Sc   1.255216   0.974987
     2  O   -1.255216   0.025013
 Sum of Mulliken charges =  -0.00000   1.00000

 Dipole moment (field-independent basis, Debye):
    X=              0.0000    Y=              0.0000    Z=              4.8326  Tot=              4.8326
 Quadrupole moment (field-independent basis, Debye-Ang):
   XX=            -21.8730   YY=            -21.8730   ZZ=            -32.6504
   XY=              0.0000   XZ=              0.0000   YZ=              0.0000

 Normal termination of Gaussian 16 at Mon Feb 19 17:52:29 2018.
