 Gaussian 16, Revision A.03,
 Gaussian 16:  ES64L-G16RevA.03 25-Dec-2016

 ----------------------------------------------------------------------
 #P ROCCSD(T)=(maxcyc=150, Full, SaveAmplitudes, ReadAmplitudes)/Gen 5d
  7f SCF=(maxcycles=300) Integral(NoXCTest) MaxDisk=500GB Pop=Regular P
 seudo=Read Guess=Read IOp(5/15=2)
 ----------------------------------------------------------------------

 ---
 ScO
 ---
 Symbolic Z-matrix:
 Charge =  0 Multiplicity = 2

                         Standard orientation:
 ---------------------------------------------------------------------
 Center     Atomic      Atomic             Coordinates (Angstroms)
 Number     Number       Type             X           Y           Z
 ---------------------------------------------------------------------
      1         21           0        0.000000    0.000000    0.468966
      2          8           0        0.000000    0.000000   -1.231034
 ---------------------------------------------------------------------

 SCF Done:  E(ROHF) =  -61.9316431116     A.U. after    1 cycles
 E2 =    -0.6820637111D+00 EUMP2 =    -0.62613706822723D+02
 CCSD(T)
 CCSD(T)= -0.62643674091D+02

 The electronic state is 2-SG.
 Alpha  occ. eigenvalues --   -2.65609  -1.66801  -1.63851  -1.63851  -1.12677
 Alpha  occ. eigenvalues --   -0.42751  -0.41143  -0.41143  -0.25225
 Alpha virt. eigenvalues --   -0.00047  -0.00047   0.01456   0.02229   0.03529
 Alpha virt. eigenvalues --    0.03529   0.03579   0.03579   0.04202   0.04202
 Alpha virt. eigenvalues --    0.04379   0.05443   0.08078   0.08078   0.10521

 Mulliken charges and spin densities:
               1          2
     1  Sc   1.255216   0.974987
     2  O   -1.255216   0.025013
 Sum of Mulliken charges =  -0.00000   1.00000

 Dipole moment (field-independent basis, Debye):
    X=              0.0000    Y=              0.0000    Z=              4.8326  Tot=              4.8326
 Quadrupole moment (field-independent basis, Debye-Ang):
   XX=            -21.8730   YY=            -21.8730   ZZ=            -32.6504
   XY=              0.0000   XZ=              0.0000   YZ=              0.0000

 \\#P ROCCSD(T)=(maxcyc=150, Full, SaveAmplitudes, ReadAmplitudes)/Gen
 13\CCSD=-62.6031473\CCSD(T)=-62.6436741\RMSD=1.944e-09\PG=C*V [C*(O1Sc
 Normal termination of Gaussian 16 at Wed Feb 21 04:07:51 2018.
