 Gaussian 16, Revision A.03,
 Gaussian 16:  ES64L-G16RevA.03 25-Dec-2016

 ----------------------------------------------------------------------
 #P ROCCSD(T)=(maxcyc=150, Full)/Gen 5d 7f SCF=(maxcycles=300) Integral
 (NoXCTest) MaxDisk=500GB Pop=Regular Pseudo=Read IOp(5/15=2) Guess=Rea
 d
 ----------------------------------------------------------------------

 ---
 ScH
 ---
 Symbolic Z-matrix:
 Charge =  0 Multiplicity = 1

                         Standard orientation:
 ---------------------------------------------------------------------
 Center     Atomic      Atomic             Coordinates (Angstroms)
 Number     Number       Type             X           Y           Z
 ---------------------------------------------------------------------
      1         21           0        0.000000    0.000000    0.068182
      2          1           0        0.000000    0.000000   -1.431818
 ---------------------------------------------------------------------

 SCF Done:  E(ROHF) =  -46.5785204808     A.U. after   11 cycles
 E2 =    -0.4110722556D+00 EUMP2 =    -0.46989592736446D+02
 CCSD(T)
 CCSD(T)= -0.47031414891D+02

 The electronic state is 1-SG.
 Alpha  occ. eigenvalues --   -2.66307  -1.64331  -1.63316  -1.63316  -0.44150
 Alpha  occ. eigenvalues --   -0.22245
 Alpha virt. eigenvalues --    0.01296   0.01296   0.01640   0.02167   0.03511
 Alpha virt. eigenvalues --    0.03901   0.03901   0.03915   0.03915   0.04770
 Alpha virt. eigenvalues --    0.04770   0.05008   0.09335   0.09498   0.09498

 Mulliken charges and spin densities:
               1          2
     1  Sc   0.421903   0.000000
     2  H   -0.421903   0.000000
 Sum of Mulliken charges =  -0.00000   0.00000

 Dipole moment (field-independent basis, Debye):
    X=              0.0000    Y=              0.0000    Z=              0.8007  Tot=              0.8007
 Quadrupole moment (field-independent basis, Debye-Ang):
   XX=            -23.3908   YY=            -23.3908   ZZ=            -24.5576
   XY=              0.0000   XZ=              0.0000   YZ=              0.0000

 P ROCCSD(T)=(maxcyc=150, Full)/Gen 5d 7f SCF=(maxcycles=300) Integral(
 PMP2-0=-46.9895927\MP4SDQ=-47.0141597\CCSD=-47.0136159\CCSD(T)=-47.031
 Normal termination of Gaussian 16 at Tue Feb 13 23:40:30 2018.
