 Gaussian 16, Revision A.03,
 Gaussian 16:  ES64L-G16RevA.03 25-Dec-2016

 ----------------------------------------------------------------------
 #P ROCCSD(T)=(maxcyc=150, Full)/Gen 5d 7f SCF=(maxcycles=300) Integral
 (NoXCTest) MaxDisk=500GB Pop=Regular Pseudo=Read Guess=Read
 ----------------------------------------------------------------------

 ---
 CrH
 ---
 Symbolic Z-matrix:
 Charge =  0 Multiplicity = 6

                         Standard orientation:
 ---------------------------------------------------------------------
 Center     Atomic      Atomic             Coordinates (Angstroms)
 Number     Number       Type             X           Y           Z
 ---------------------------------------------------------------------
      1         24           0        0.000000    0.000000    0.064000
      2          1           0        0.000000    0.000000   -1.536000
 ---------------------------------------------------------------------

 SCF Done:  E(ROHF) =  -86.6920778847     A.U. after   23 cycles
 E2 =    -0.5749693523D+00 EUMP2 =    -0.87267047237030D+02
 CCSD(T)
 CCSD(T)= -0.87309287512D+02

 The electronic state is 6-SG.
 Alpha  occ. eigenvalues --   -3.70803  -2.46288  -2.46288  -2.41962  -0.53095
 Alpha  occ. eigenvalues --   -0.53095  -0.50016  -0.50016  -0.41641  -0.25820
 Alpha virt. eigenvalues --    0.01309   0.01309   0.01856   0.02177   0.04378
 Alpha virt. eigenvalues --    0.04897   0.04897   0.04970   0.04970   0.05235
 Alpha virt. eigenvalues --    0.05235   0.06213   0.08497   0.11673   0.15119

 Mulliken charges and spin densities:
               1          2
     1  Cr   0.373259   4.975773
     2  H   -0.373259   0.024227
 Sum of Mulliken charges =  -0.00000   5.00000

 Dipole moment (field-independent basis, Debye):
    X=              0.0000    Y=              0.0000    Z=              2.0484  Tot=              2.0484
 Quadrupole moment (field-independent basis, Debye-Ang):
   XX=            -16.9724   YY=            -16.9724   ZZ=            -23.1076
   XY=              0.0000   XZ=              0.0000   YZ=              0.0000

 \\#P ROCCSD(T)=(maxcyc=150, Full)/Gen 5d 7f SCF=(maxcycles=300) Integr
 7.2670472\MP4SDQ=-87.2762222\CCSD=-87.2906546\CCSD(T)=-87.3092875\RMSD
 Normal termination of Gaussian 16 at Tue Feb 13 06:45:56 2018.
