 Gaussian 16, Revision A.03,
 Gaussian 16:  ES64L-G16RevA.03 25-Dec-2016

 ----------------------------------------------------------------------
 #P ROCCSD(T)=(maxcyc=150, Full)/Gen 5d 7f SCF=(maxcycles=300, NoVarAcc
 , VShift=300) MaxDisk=100GB Pop=Regular Pseudo=Read Guess=Read IOp(5/1
 5=2)
 ----------------------------------------------------------------------

 --
 Mn
 --
 Symbolic Z-matrix:
 Charge =  0 Multiplicity = 6

                         Standard orientation:
 ---------------------------------------------------------------------
 Center     Atomic      Atomic             Coordinates (Angstroms)
 Number     Number       Type             X           Y           Z
 ---------------------------------------------------------------------
      1         25           0        0.000000    0.000000    0.000000
 ---------------------------------------------------------------------

 SCF Done:  E(ROHF) =  -103.239348539     A.U. after   20 cycles
 E2 =    -0.6111350661D+00 EUMP2 =    -0.10385048360538D+03
 CCSD(T)
 CCSD(T)= -0.10386838924D+03

 The electronic state is 6-A1G.
 Alpha  occ. eigenvalues --   -4.13452  -2.75652  -2.75652  -2.75652  -0.63019
 Alpha  occ. eigenvalues --   -0.63019  -0.63019  -0.63019  -0.63019  -0.26821
 Alpha virt. eigenvalues --    0.01720   0.01720   0.01720   0.02124   0.05597
 Alpha virt. eigenvalues --    0.05597   0.05597   0.05597   0.05597   0.05635
 Alpha virt. eigenvalues --    0.05635   0.05635   0.10426   0.17437   0.17437

 Mulliken charges and spin densities:
               1          2
     1  Mn  -0.000000   5.000000
 Sum of Mulliken charges =  -0.00000   5.00000

 Dipole moment (field-independent basis, Debye):
    X=              0.0000    Y=              0.0000    Z=              0.0000  Tot=              0.0000
 Quadrupole moment (field-independent basis, Debye-Ang):
   XX=            -18.8384   YY=            -18.8384   ZZ=            -18.8384
   XY=             -0.0000   XZ=              0.0000   YZ=              0.0000

 1\1\GINC-C506-022\SP\ROCCSD(T)-Full\Gen\Mn1(6)\AANNABE\19-Apr-2018\0\\
 #P ROCCSD(T)=(maxcyc=150, Full)/Gen 5d 7f SCF=(maxcycles=300, NoVarAcc
 , VShift=300) MaxDisk=100GB Pop=Regular Pseudo=Read Guess=Read IOp(5/1
 5=2)\\Mn\\0,6\Mn,0,0.,0.,0.\\Version=ES64L-G16RevA.03\State=6-A1G\HF=-
 103.2393485\MP2=-103.8504836\MP3=-103.846866\PUHF=-103.2393485\PMP2-0=
 -103.8504836\MP4SDQ=-103.8492394\CCSD=-103.8493985\CCSD(T)=-103.868389
 2\RMSD=4.962e-09\PG=OH [O(Mn1)]\\@

 Normal termination of Gaussian 16 at Thu Apr 19 10:27:40 2018.
