 Gaussian 16, Revision A.03,
 Gaussian 16:  ES64L-G16RevA.03 25-Dec-2016

 ----------------------------------------------------------------------
 #P ROCCSD(T)=(maxcyc=150, Full, SaveAmplitudes, ReadAmplitudes)/Gen 5d
  7f SCF=(maxcycles=300) Integral(NoXCTest) MaxDisk=500GB Pop=Regular P
 seudo=Read Guess=Read
 ----------------------------------------------------------------------

 ---
 MnO
 ---
 Symbolic Z-matrix:
 Charge =  0 Multiplicity = 6

                         Standard orientation:
 ---------------------------------------------------------------------
 Center     Atomic      Atomic             Coordinates (Angstroms)
 Number     Number       Type             X           Y           Z
 ---------------------------------------------------------------------
      1         25           0        0.000000    0.000000    0.339394
      2          8           0        0.000000    0.000000   -1.060606
 ---------------------------------------------------------------------

 SCF Done:  E(ROHF) =  -119.098823626     A.U. after   22 cycles
 E2 =    -0.9683360339D+00 EUMP2 =    -0.12006715965994D+03
 CCSD(T)
 CCSD(T)= -0.12007651350D+03

 The electronic state is 6-SG.
 Alpha  occ. eigenvalues --   -4.15064  -2.79645  -2.79645  -2.77437  -1.24449
 Alpha  occ. eigenvalues --   -0.70560  -0.70560  -0.63241  -0.63241  -0.55877
 Alpha  occ. eigenvalues --   -0.41085  -0.41085  -0.31737
 Alpha virt. eigenvalues --    0.01117   0.01987   0.01987   0.03075   0.04765
 Alpha virt. eigenvalues --    0.05921   0.05921   0.05932   0.05932   0.06622
 Alpha virt. eigenvalues --    0.07155   0.07155   0.11537   0.14242   0.17851

 Mulliken charges and spin densities:
               1          2
     1  Mn   1.069339   4.774725
     2  O   -1.069339   0.225275
 Sum of Mulliken charges =  -0.00000   5.00000

 Dipole moment (field-independent basis, Debye):
    X=              0.0000    Y=              0.0000    Z=              4.1929  Tot=              4.1929
 Quadrupole moment (field-independent basis, Debye-Ang):
   XX=            -19.6667   YY=            -19.6667   ZZ=            -23.1685
   XY=              0.0000   XZ=              0.0000   YZ=              0.0000

 \\#P ROCCSD(T)=(maxcyc=150, Full, SaveAmplitudes, ReadAmplitudes)/Gen
 9.0988236\PMP2-0=-120.0671597\CCSD=-120.0334122\CCSD(T)=-120.0765135\R
 Normal termination of Gaussian 16 at Fri Mar  9 18:09:28 2018.
