 Gaussian 16, Revision A.03,
 Gaussian 16:  ES64L-G16RevA.03 25-Dec-2016

 ----------------------------------------------------------------------
 #P ROCCSD(T)=(maxcyc=150, Full)/Gen 5d 7f SCF=(maxcycles=300) MaxDisk=
 500GB Pop=Regular Pseudo=Read Guess=Read
 ----------------------------------------------------------------------

 --
 Sc
 --
 Symbolic Z-matrix:
 Charge =  0 Multiplicity = 2

                         Standard orientation:
 ---------------------------------------------------------------------
 Center     Atomic      Atomic             Coordinates (Angstroms)
 Number     Number       Type             X           Y           Z
 ---------------------------------------------------------------------
      1         21           0        0.000000    0.000000    0.000000
 ---------------------------------------------------------------------

 SCF Done:  E(ROHF) =  -46.0576221430     A.U. after   18 cycles
 E2 =    -0.3839555659D+00 EUMP2 =    -0.46441577708826D+02
 CCSD(T)
 CCSD(T)= -0.46476391922D+02

 Unable to determine electronic state:  an orbital has unidentified symmetry.
 Alpha  occ. eigenvalues --   -2.63374  -1.63183  -1.63183  -1.59347  -0.34497
 Alpha  occ. eigenvalues --   -0.21542
 Alpha virt. eigenvalues --    0.01186   0.01277   0.01277   0.02126   0.02886
 Alpha virt. eigenvalues --    0.02889   0.02889   0.02897   0.02919   0.04322
 Alpha virt. eigenvalues --    0.04443   0.04443   0.08064   0.08188   0.08188

 Mulliken charges and spin densities:
               1          2
     1  Sc   0.000000   1.000000
 Sum of Mulliken charges =   0.00000   1.00000

 Dipole moment (field-independent basis, Debye):
    X=              0.0000    Y=              0.0000    Z=              0.0000  Tot=              0.0000
 Quadrupole moment (field-independent basis, Debye-Ang):
   XX=            -23.3931   YY=            -23.3931   ZZ=            -23.0975
   XY=             -0.0000   XZ=              0.0000   YZ=             -0.0000

 1\1\GINC-C506-012\SP\ROCCSD(T)-Full\Gen\Sc1(2)\AANNABE\16-Feb-2018\0\\
 #P ROCCSD(T)=(maxcyc=150, Full)/Gen 5d 7f SCF=(maxcycles=300) MaxDisk=
 500GB Pop=Regular Pseudo=Read Guess=Read\\Sc\\0,2\Sc,0,0.,0.,0.\\Versi
 on=ES64L-G16RevA.03\HF=-46.0576221\MP2=-46.4415777\MP3=-46.4612217\PUH
 F=-46.0576221\PMP2-0=-46.4415777\MP4SDQ=-46.4607395\CCSD=-46.4609752\C
 CSD(T)=-46.4763919\RMSD=2.727e-09\PG=OH [O(Sc1)]\\@

 Normal termination of Gaussian 16 at Fri Feb 16 11:29:08 2018.
