 Gaussian 16, Revision A.03,
 Gaussian 16:  ES64L-G16RevA.03 25-Dec-2016

 ----------------------------------------------------------------------
 #P ROCCSD(T)=(MaxCyc=150, Window=(7,0))/Gen SCF=(maxcycle=400) Integra
 l(DKHSO, NoXCTest) Pop=Regular MaxDisk=500GB Guess=Read IOp(5/15=2)
 ----------------------------------------------------------------------

 ---
 NiO
 ---
 Symbolic Z-matrix:
 Charge =  0 Multiplicity = 3

                         Standard orientation:
 ---------------------------------------------------------------------
 Center     Atomic      Atomic             Coordinates (Angstroms)
 Number     Number       Type             X           Y           Z
 ---------------------------------------------------------------------
      1         28           0        0.000000    0.000000    0.311111
      2          8           0        0.000000    0.000000   -1.088889
 ---------------------------------------------------------------------

 SCF Done:  E(ROHF) =  -1593.84269322     A.U. after   22 cycles
 E2 =    -0.1214025420D+01 EUMP2 =    -0.15950567186375D+04
 CCSD(T)
 CCSD(T)= -0.15950356446D+04

 The electronic state is 3-SG.
 Alpha  occ. eigenvalues -- -308.79764 -38.67176 -33.15079 -33.11571 -33.11571
 Alpha  occ. eigenvalues --  -20.50746  -5.10509  -3.48646  -3.39074  -3.39074
 Alpha  occ. eigenvalues --   -1.23237  -0.79929  -0.79929  -0.70672  -0.68185
 Alpha  occ. eigenvalues --   -0.68185  -0.41843  -0.41843  -0.37251
 Alpha virt. eigenvalues --   -0.03021   0.02647   0.02647   0.03050   0.04148
 Alpha virt. eigenvalues --    0.09034   0.09034   0.11100   0.12543   0.12543
 Alpha virt. eigenvalues --    0.13196   0.13196   0.15258   0.17080   0.26318

 Mulliken charges and spin densities:
               1          2
     1  Ni   1.079832   1.766514
     2  O   -1.079832   0.233486
 Sum of Mulliken charges =  -0.00000   2.00000

 Dipole moment (field-independent basis, Debye):
    X=              0.0000    Y=              0.0000    Z=              6.3738  Tot=              6.3738
 Quadrupole moment (field-independent basis, Debye-Ang):
   XX=            -18.5798   YY=            -18.5798   ZZ=            -19.7046
   XY=              0.0000   XZ=              0.0000   YZ=              0.0000

 1\1\GINC-C497-093\SP\ROCCSD(T)-RW\Gen\Ni1O1(3)\GWANG18\17-Mar-2018\0\\
 #P ROCCSD(T)=(MaxCyc=150, Window=(7,0))/Gen SCF=(maxcycle=400) Integra
 l(DKHSO, NoXCTest) Pop=Regular MaxDisk=500GB Guess=Read IOp(5/15=2)\\N
 iO\\0,3\Ni,0,0.,0.,0.\O,0,0.,0.,1.4\\Version=ES64L-G16RevA.03\State=3-
 SG\HF=-1593.8426932\MP2=-1595.0567186\MP3=-1594.8817063\PUHF=-1593.842
 6932\PMP2-0=-1595.0567186\MP4SDQ=-1595.0206593\CCSD=-1594.9819416\CCSD
 (T)=-1595.0356446\RMSD=1.825e-09\PG=C*V [C*(O1Ni1)]\\@

 Normal termination of Gaussian 16 at Sat Mar 17 03:46:51 2018.
