 Gaussian 16, Revision A.03,
 Gaussian 16:  ES64L-G16RevA.03 25-Dec-2016

 ----------------------------------------------------------------------
 #P ROCCSD(T)=(MaxCyc=150, Window=(7,0))/Gen SCF=(maxcycle=400) Integra
 l(DKHSO, NoXCTest) Pop=Regular MaxDisk=500GB Guess=Read IOp(5/15=2)
 ----------------------------------------------------------------------

 ---
 NiO
 ---
 Symbolic Z-matrix:
 Charge =  0 Multiplicity = 3

                         Standard orientation:
 ---------------------------------------------------------------------
 Center     Atomic      Atomic             Coordinates (Angstroms)
 Number     Number       Type             X           Y           Z
 ---------------------------------------------------------------------
      1         28           0        0.000000    0.000000    0.311111
      2          8           0        0.000000    0.000000   -1.088889
 ---------------------------------------------------------------------

 SCF Done:  E(ROHF) =  -1593.84932990     A.U. after   22 cycles
 E2 =    -0.1270218775D+01 EUMP2 =    -0.15951195486756D+04
 CCSD(T)
 CCSD(T)= -0.15950962367D+04

 The electronic state is 3-SG.
 Alpha  occ. eigenvalues -- -308.79752 -38.67149 -33.15044 -33.11542 -33.11542
 Alpha  occ. eigenvalues --  -20.50581  -5.10488  -3.48617  -3.39056  -3.39056
 Alpha  occ. eigenvalues --   -1.23161  -0.79927  -0.79927  -0.70663  -0.68189
 Alpha  occ. eigenvalues --   -0.68189  -0.41849  -0.41849  -0.37243
 Alpha virt. eigenvalues --   -0.03017   0.02272   0.02272   0.02732   0.03778
 Alpha virt. eigenvalues --    0.07378   0.07378   0.07698   0.08200   0.08200
 Alpha virt. eigenvalues --    0.09577   0.09577   0.12931   0.15669   0.22607

 Mulliken charges and spin densities:
               1          2
     1  Ni   0.885056   1.772255
     2  O   -0.885056   0.227745
 Sum of Mulliken charges =  -0.00000   2.00000

 Dipole moment (field-independent basis, Debye):
    X=              0.0000    Y=              0.0000    Z=              6.3621  Tot=              6.3621
 Quadrupole moment (field-independent basis, Debye-Ang):
   XX=            -18.5717   YY=            -18.5717   ZZ=            -19.6911
   XY=              0.0000   XZ=              0.0000   YZ=              0.0000

 1\1\GINC-C476-114\SP\ROCCSD(T)-RW\Gen\Ni1O1(3)\GWANG18\18-Mar-2018\0\\
 #P ROCCSD(T)=(MaxCyc=150, Window=(7,0))/Gen SCF=(maxcycle=400) Integra
 l(DKHSO, NoXCTest) Pop=Regular MaxDisk=500GB Guess=Read IOp(5/15=2)\\N
 iO\\0,3\Ni,0,0.,0.,0.\O,0,0.,0.,1.4\\Version=ES64L-G16RevA.03\State=3-
 SG\HF=-1593.8493299\MP2=-1595.1195487\MP3=-1594.9415858\PUHF=-1593.849
 3299\PMP2-0=-1595.1195487\MP4SDQ=-1595.0779251\CCSD=-1595.0399684\CCSD
 (T)=-1595.0962367\RMSD=2.403e-09\PG=C*V [C*(O1Ni1)]\\@

 Normal termination of Gaussian 16 at Sun Mar 18 04:06:38 2018.
