 Gaussian 16, Revision A.03,
 Gaussian 16:  ES64L-G16RevA.03 25-Dec-2016

 ----------------------------------------------------------------------
 #P ROCCSD(T)=(maxcyc=150, Full)/Gen 5d 7f SCF=(maxcycles=300) Integral
 (NoXCTest, DKHSO) MaxDisk=500GB Pop=Regular IOp(5/15=2) Guess=Read
 ----------------------------------------------------------------------

 ---
 ScH
 ---
 Symbolic Z-matrix:
 Charge =  0 Multiplicity = 1

                         Standard orientation:
 ---------------------------------------------------------------------
 Center     Atomic      Atomic             Coordinates (Angstroms)
 Number     Number       Type             X           Y           Z
 ---------------------------------------------------------------------
      1         21           0        0.000000    0.000000    0.054545
      2          1           0        0.000000    0.000000   -1.145455
 ---------------------------------------------------------------------

 SCF Done:  E(ROHF) =  -763.713978181     A.U. after   11 cycles
 E2 =    -0.7930279702D+00 EUMP2 =    -0.76450700615140D+03
 CCSD(T)
 CCSD(T)= -0.76453756388D+03

 The electronic state is 1-SG.
 Alpha  occ. eigenvalues -- -166.82862 -19.27121 -15.69542 -15.69542 -15.68880
 Alpha  occ. eigenvalues --   -2.61141  -1.63051  -1.58541  -1.58541  -0.46880
 Alpha  occ. eigenvalues --   -0.21476
 Alpha virt. eigenvalues --    0.01317   0.01317   0.01412   0.01981   0.02883
 Alpha virt. eigenvalues --    0.02883   0.02898   0.02904   0.02904   0.04357
 Alpha virt. eigenvalues --    0.04458   0.04458   0.08059   0.08253   0.08253

 Mulliken charges and spin densities:
               1          2
     1  Sc   0.200596   0.000000
     2  H   -0.200596   0.000000
 Sum of Mulliken charges =  -0.00000   0.00000

 Dipole moment (field-independent basis, Debye):
    X=              0.0000    Y=              0.0000    Z=              0.6958  Tot=              0.6958
 Quadrupole moment (field-independent basis, Debye-Ang):
   XX=            -24.0876   YY=            -24.0876   ZZ=            -23.0477
   XY=             -0.0000   XZ=              0.0000   YZ=             -0.0000

 P ROCCSD(T)=(maxcyc=150, Full)/Gen 5d 7f SCF=(maxcycles=300) Integral(
 MP2-0=-764.5070062\MP4SDQ=-764.5189649\CCSD=-764.5185935\CCSD(T)=-764.
 Normal termination of Gaussian 16 at Mon Feb 12 21:35:06 2018.
