 Gaussian 16, Revision A.03,
 Gaussian 16:  ES64L-G16RevA.03 25-Dec-2016

 ----------------------------------------------------------------------
 #P ROCCSD(T)=(maxcyc=150, Full)/Gen 5d 7f SCF=(maxcycles=300, NoVarAcc
 , VShift=200) MaxDisk=100GB Pop=Regular Pseudo=Read Guess=Read
 ----------------------------------------------------------------------

 --
 Ti
 --
 Symbolic Z-matrix:
 Charge =  0 Multiplicity = 3

                         Standard orientation:
 ---------------------------------------------------------------------
 Center     Atomic      Atomic             Coordinates (Angstroms)
 Number     Number       Type             X           Y           Z
 ---------------------------------------------------------------------
      1         22           0        0.000000    0.000000    0.000000
 ---------------------------------------------------------------------

 SCF Done:  E(ROHF) =  -57.6278528639     A.U. after   16 cycles
 E2 =    -0.4124140812D+00 EUMP2 =    -0.58040266945104D+02
 CCSD(T)
 CCSD(T)= -0.58077829681D+02

 Unable to determine electronic state:  an orbital has unidentified symmetry.
 Alpha  occ. eigenvalues --   -3.00115  -1.89296  -1.89296  -1.89296  -0.43972
 Alpha  occ. eigenvalues --   -0.43972  -0.22997
 Alpha virt. eigenvalues --    0.01442   0.01442   0.01442   0.02395   0.05304
 Alpha virt. eigenvalues --    0.05304   0.05304   0.05372   0.05372   0.05372
 Alpha virt. eigenvalues --    0.05461   0.05461   0.12298   0.12298   0.12298

 Mulliken charges and spin densities:
               1          2
     1  Ti  -0.000000   2.000000
 Sum of Mulliken charges =  -0.00000   2.00000

 Dipole moment (field-independent basis, Debye):
    X=             -0.0000    Y=             -0.0000    Z=              0.0000  Tot=              0.0000
 Quadrupole moment (field-independent basis, Debye-Ang):
   XX=            -21.9514   YY=            -21.9514   ZZ=            -21.9514
   XY=              0.0000   XZ=             -0.0000   YZ=              0.0000

 1\1\GINC-C464-033\SP\ROCCSD(T)-Full\Gen\Ti1(3)\AANNABE\13-Mar-2018\0\\
 #P ROCCSD(T)=(maxcyc=150, Full)/Gen 5d 7f SCF=(maxcycles=300, NoVarAcc
 , VShift=200) MaxDisk=100GB Pop=Regular Pseudo=Read Guess=Read\\Ti\\0,
 3\Ti,0,0.,0.,0.\\Version=ES64L-G16RevA.03\HF=-57.6278529\MP2=-58.04026
 69\MP3=-58.0616689\PUHF=-57.6278529\PMP2-0=-58.0402669\MP4SDQ=-58.0620
 616\CCSD=-58.0624758\CCSD(T)=-58.0778297\RMSD=9.480e-09\PG=OH [O(Ti1)]
 \\@

 Normal termination of Gaussian 16 at Tue Mar 13 12:25:24 2018.
