 Gaussian 16, Revision A.03,
 Gaussian 16:  ES64L-G16RevA.03 25-Dec-2016

 ----------------------------------------------------------------------
 #P ROCCSD(T)=(maxcyc=150, Full)/Gen 5d 7f SCF=(maxcycles=300) Integral
 (NoXCTest) MaxDisk=500GB Pop=Regular Pseudo=Read IOp(5/15=2) Guess=Rea
 d
 ----------------------------------------------------------------------

 ---
 ScH
 ---
 Symbolic Z-matrix:
 Charge =  0 Multiplicity = 1

                         Standard orientation:
 ---------------------------------------------------------------------
 Center     Atomic      Atomic             Coordinates (Angstroms)
 Number     Number       Type             X           Y           Z
 ---------------------------------------------------------------------
      1         21           0        0.000000    0.000000    0.045455
      2          1           0        0.000000    0.000000   -0.954545
 ---------------------------------------------------------------------

 SCF Done:  E(ROHF) =  -46.5237608148     A.U. after   10 cycles
 E2 =    -0.4325294884D+00 EUMP2 =    -0.46956290303174D+02
 CCSD(T)
 CCSD(T)= -0.46992959982D+02

 The electronic state is 1-SG.
 Alpha  occ. eigenvalues --   -2.64211  -1.66574  -1.56311  -1.56311  -0.47597
 Alpha  occ. eigenvalues --   -0.21393
 Alpha virt. eigenvalues --    0.01235   0.01370   0.01370   0.02136   0.02883
 Alpha virt. eigenvalues --    0.02883   0.02906   0.02909   0.02909   0.04418
 Alpha virt. eigenvalues --    0.04568   0.04568   0.08308   0.08308   0.08477

 Mulliken charges and spin densities:
               1          2
     1  Sc   0.294949   0.000000
     2  H   -0.294949   0.000000
 Sum of Mulliken charges =  -0.00000   0.00000

 Dipole moment (field-independent basis, Debye):
    X=              0.0000    Y=              0.0000    Z=              1.2483  Tot=              1.2483
 Quadrupole moment (field-independent basis, Debye-Ang):
   XX=            -23.3369   YY=            -23.3369   ZZ=            -21.8907
   XY=              0.0000   XZ=              0.0000   YZ=              0.0000

 P ROCCSD(T)=(maxcyc=150, Full)/Gen 5d 7f SCF=(maxcycles=300) Integral(
 MP2-0=-46.9562903\MP4SDQ=-46.9752785\CCSD=-46.9751259\CCSD(T)=-46.9929
 Normal termination of Gaussian 16 at Tue Feb 13 16:09:16 2018.
