 Gaussian 16, Revision A.03,
 Gaussian 16:  ES64L-G16RevA.03 25-Dec-2016

 ----------------------------------------------------------------------
 #P ROCCSD(T)=(MaxCyc=150, Full)/Gen SCF=(maxcycle=400, vshift=200) Pse
 udo=Read Integral(NoXCTest) Pop=Regular MaxDisk=500GB Guess=Read IOp(5
 /15=2)
 ----------------------------------------------------------------------

 ---
 FeH
 ---
 Symbolic Z-matrix:
 Charge =  0 Multiplicity = 4

                         Standard orientation:
 ---------------------------------------------------------------------
 Center     Atomic      Atomic             Coordinates (Angstroms)
 Number     Number       Type             X           Y           Z
 ---------------------------------------------------------------------
      1         26           0        0.000000    0.000000    0.051852
      2          1           0        0.000000    0.000000   -1.348148
 ---------------------------------------------------------------------

 SCF Done:  E(ROHF) =  -123.107504149     A.U. after   27 cycles
 E2 =    -0.8108425764D+00 EUMP2 =    -0.12391834672536D+03
 CCSD(T)
 CCSD(T)= -0.12391365660D+03

 Unable to determine electronic state:  partially filled degenerate orbitals.
 Alpha  occ. eigenvalues --   -4.26476  -2.79934  -2.78732  -2.78732  -0.52171
 Alpha  occ. eigenvalues --   -0.52171  -0.50702  -0.48701  -0.45809  -0.31312
 Alpha virt. eigenvalues --   -0.00018   0.02245   0.02245   0.02777   0.04248
 Alpha virt. eigenvalues --    0.06239   0.06829   0.06838   0.06838   0.06842
 Alpha virt. eigenvalues --    0.07663   0.07663   0.09562   0.16945   0.17915

 Mulliken charges and spin densities:
               1          2
     1  Fe   0.293656   2.993935
     2  H   -0.293656   0.006065
 Sum of Mulliken charges =  -0.00000   3.00000

 Dipole moment (field-independent basis, Debye):
    X=              0.0000    Y=              0.0000    Z=              3.7712  Tot=              3.7712
 Quadrupole moment (field-independent basis, Debye-Ang):
   XX=            -16.1166   YY=            -16.1166   ZZ=            -16.4489
   XY=              0.0000   XZ=              0.0000   YZ=              0.0000

 \\#P ROCCSD(T)=(MaxCyc=150, Full)/Gen SCF=(maxcycle=400, vshift=200) P
 PMP2-0=-123.9183467\MP4SDQ=-123.8938263\CCSD=-123.8829987\CCSD(T)=-123
 Normal termination of Gaussian 16 at Sun Apr 22 23:19:23 2018.
