 Gaussian 16, Revision A.03,
 Gaussian 16:  ES64L-G16RevA.03 25-Dec-2016

 ----------------------------------------------------------------------
 #P ROCCSD(T)=(MaxCyc=150, Full)/Gen SCF=(maxcycle=400, vshift=200) Pse
 udo=Read Integral(NoXCTest) Pop=Regular MaxDisk=500GB Guess=Read IOp(5
 /15=2)
 ----------------------------------------------------------------------

 ---
 FeH
 ---
 Symbolic Z-matrix:
 Charge =  0 Multiplicity = 4

                         Standard orientation:
 ---------------------------------------------------------------------
 Center     Atomic      Atomic             Coordinates (Angstroms)
 Number     Number       Type             X           Y           Z
 ---------------------------------------------------------------------
      1         26           0        0.000000    0.000000    0.051852
      2          1           0        0.000000    0.000000   -1.348148
 ---------------------------------------------------------------------

 SCF Done:  E(ROHF) =  -123.107704003     A.U. after   18 cycles
 E2 =    -0.8251113674D+00 EUMP2 =    -0.12393281537049D+03
 CCSD(T)
 CCSD(T)= -0.12392607180D+03

 Unable to determine electronic state:  an orbital has unidentified symmetry.
 Alpha  occ. eigenvalues --   -4.26473  -2.79929  -2.78727  -2.78727  -0.52167
 Alpha  occ. eigenvalues --   -0.52167  -0.50698  -0.48702  -0.45811  -0.31313
 Alpha virt. eigenvalues --   -0.00058   0.02179   0.02179   0.02482   0.03658
 Alpha virt. eigenvalues --    0.05831   0.06254   0.06264   0.06311   0.06311
 Alpha virt. eigenvalues --    0.07323   0.07323   0.08379   0.13040   0.17114

 Mulliken charges and spin densities:
               1          2
     1  Fe   0.285521   2.993634
     2  H   -0.285521   0.006366
 Sum of Mulliken charges =  -0.00000   3.00000

 Dipole moment (field-independent basis, Debye):
    X=              0.0000    Y=              0.0000    Z=              3.7712  Tot=              3.7712
 Quadrupole moment (field-independent basis, Debye-Ang):
   XX=            -16.1144   YY=            -16.1144   ZZ=            -16.4509
   XY=              0.0000   XZ=              0.0000   YZ=              0.0000

 \\#P ROCCSD(T)=(MaxCyc=150, Full)/Gen SCF=(maxcycle=400, vshift=200) P
 MP2-0=-123.9328154\MP4SDQ=-123.9056346\CCSD=-123.8948934\CCSD(T)=-123.
 Normal termination of Gaussian 16 at Sun Apr 22 23:59:54 2018.
