 Gaussian 16, Revision A.03,
 Gaussian 16:  ES64L-G16RevA.03 25-Dec-2016

 ----------------------------------------------------------------------
 #P ROCCSD(T)=(MaxCyc=150, Full)/Gen SCF=(maxcycle=400, vshift=200) Pse
 udo=Read Integral(NoXCTest) Pop=Regular MaxDisk=500GB Guess=Read IOp(5
 /15=2)
 ----------------------------------------------------------------------

 ---
 FeH
 ---
 Symbolic Z-matrix:
 Charge =  0 Multiplicity = 4

                         Standard orientation:
 ---------------------------------------------------------------------
 Center     Atomic      Atomic             Coordinates (Angstroms)
 Number     Number       Type             X           Y           Z
 ---------------------------------------------------------------------
      1         26           0        0.000000    0.000000    0.051852
      2          1           0        0.000000    0.000000   -1.348148
 ---------------------------------------------------------------------

 SCF Done:  E(ROHF) =  -123.106407369     A.U. after   28 cycles
 E2 =    -0.7752648289D+00 EUMP2 =    -0.12388167219760D+03
 CCSD(T)
 CCSD(T)= -0.12387906707D+03

 Unable to determine electronic state:  an orbital has unidentified symmetry.
 Alpha  occ. eigenvalues --   -4.26480  -2.79946  -2.78741  -2.78741  -0.52172
 Alpha  occ. eigenvalues --   -0.52172  -0.50702  -0.48697  -0.45806  -0.31311
 Alpha virt. eigenvalues --    0.00007   0.02470   0.02470   0.03042   0.04473
 Alpha virt. eigenvalues --    0.08407   0.08407   0.09615   0.10299   0.10336
 Alpha virt. eigenvalues --    0.10352   0.10352   0.10591   0.16958   0.24512

 Mulliken charges and spin densities:
               1          2
     1  Fe   0.400882   2.995858
     2  H   -0.400882   0.004142
 Sum of Mulliken charges =  -0.00000   3.00000

 Dipole moment (field-independent basis, Debye):
    X=              0.0000    Y=              0.0000    Z=              3.7755  Tot=              3.7755
 Quadrupole moment (field-independent basis, Debye-Ang):
   XX=            -16.1273   YY=            -16.1273   ZZ=            -16.4424
   XY=              0.0000   XZ=              0.0000   YZ=              0.0000

 \\#P ROCCSD(T)=(MaxCyc=150, Full)/Gen SCF=(maxcycle=400, vshift=200) P
 \PMP2-0=-123.8816722\MP4SDQ=-123.8608112\CCSD=-123.8498772\CCSD(T)=-12
 Normal termination of Gaussian 16 at Sun Apr 22 23:02:43 2018.
