 Gaussian 16, Revision A.03,
 Gaussian 16:  ES64L-G16RevA.03 25-Dec-2016

 ----------------------------------------------------------------------
 #P ROCCSD(T)=(MaxCyc=150, Full)/Gen SCF=(maxcycle=400) Pseudo=Read Int
 egral(NoXCTest) Pop=Regular MaxDisk=500GB Guess=Read IOp(5/15=2)
 ----------------------------------------------------------------------

 ---
 NiO
 ---
 Symbolic Z-matrix:
 Charge =  0 Multiplicity = 3

                         Standard orientation:
 ---------------------------------------------------------------------
 Center     Atomic      Atomic             Coordinates (Angstroms)
 Number     Number       Type             X           Y           Z
 ---------------------------------------------------------------------
      1         28           0        0.000000    0.000000    0.288889
      2          8           0        0.000000    0.000000   -1.011111
 ---------------------------------------------------------------------

 SCF Done:  E(ROHF) =  -184.776296096     A.U. after   20 cycles
 E2 =    -0.1316253880D+01 EUMP2 =    -0.18609254997613D+03
 CCSD(T)
 CCSD(T)= -0.18606759153D+03

 The electronic state is 3-SG.
 Alpha  occ. eigenvalues --   -5.03033  -3.49567  -3.38327  -3.38327  -1.28335
 Alpha  occ. eigenvalues --   -0.82907  -0.82907  -0.72003  -0.68118  -0.68118
 Alpha  occ. eigenvalues --   -0.44884  -0.44884  -0.35974
 Alpha virt. eigenvalues --   -0.01595   0.02480   0.02480   0.03286   0.03661
 Alpha virt. eigenvalues --    0.07575   0.07575   0.07816   0.08293   0.08293
 Alpha virt. eigenvalues --    0.09677   0.09677   0.12539   0.16235   0.22548

 Mulliken charges and spin densities:
               1          2
     1  Ni   0.753493   1.694437
     2  O   -0.753493   0.305563
 Sum of Mulliken charges =   0.00000   2.00000

 Dipole moment (field-independent basis, Debye):
    X=              0.0000    Y=              0.0000    Z=              5.0064  Tot=              5.0064
 Quadrupole moment (field-independent basis, Debye-Ang):
   XX=            -18.4518   YY=            -18.4518   ZZ=            -18.7263
   XY=              0.0000   XZ=              0.0000   YZ=              0.0000

 \\#P ROCCSD(T)=(MaxCyc=150, Full)/Gen SCF=(maxcycle=400) Pseudo=Read I
 P2-0=-186.09255\MP4SDQ=-186.0503565\CCSD=-186.0105719\CCSD(T)=-186.067
 Normal termination of Gaussian 16 at Mon Mar 26 19:12:48 2018.
