 Gaussian 16, Revision A.03,
 Gaussian 16:  ES64L-G16RevA.03 25-Dec-2016

 ----------------------------------------------------------------------
 #P ROCCSD(T)=(MaxCyc=150, Full)/Gen SCF=(maxcycle=400) Pseudo=Read Int
 egral(NoXCTest) Pop=Regular MaxDisk=500GB Guess=Read IOp(5/15=2)
 ----------------------------------------------------------------------

 ---
 NiO
 ---
 Symbolic Z-matrix:
 Charge =  0 Multiplicity = 3

                         Standard orientation:
 ---------------------------------------------------------------------
 Center     Atomic      Atomic             Coordinates (Angstroms)
 Number     Number       Type             X           Y           Z
 ---------------------------------------------------------------------
      1         28           0        0.000000    0.000000    0.288889
      2          8           0        0.000000    0.000000   -1.011111
 ---------------------------------------------------------------------

 SCF Done:  E(ROHF) =  -184.772266377     A.U. after   23 cycles
 E2 =    -0.1258220586D+01 EUMP2 =    -0.18603048696269D+03
 CCSD(T)
 CCSD(T)= -0.18600788639D+03

 The electronic state is 3-SG.
 Alpha  occ. eigenvalues --   -5.03068  -3.49601  -3.38351  -3.38351  -1.28383
 Alpha  occ. eigenvalues --   -0.82901  -0.82901  -0.72004  -0.68113  -0.68113
 Alpha  occ. eigenvalues --   -0.44874  -0.44874  -0.35986
 Alpha virt. eigenvalues --   -0.01590   0.02837   0.02837   0.03658   0.03951
 Alpha virt. eigenvalues --    0.09517   0.09517   0.11473   0.12717   0.12717
 Alpha virt. eigenvalues --    0.13021   0.13021   0.14660   0.17726   0.26160

 Mulliken charges and spin densities:
               1          2
     1  Ni   0.975313   1.686608
     2  O   -0.975313   0.313392
 Sum of Mulliken charges =  -0.00000   2.00000

 Dipole moment (field-independent basis, Debye):
    X=              0.0000    Y=              0.0000    Z=              5.0194  Tot=              5.0194
 Quadrupole moment (field-independent basis, Debye-Ang):
   XX=            -18.4565   YY=            -18.4565   ZZ=            -18.7408
   XY=              0.0000   XZ=              0.0000   YZ=              0.0000

 \\#P ROCCSD(T)=(MaxCyc=150, Full)/Gen SCF=(maxcycle=400) Pseudo=Read I
 MP2-0=-186.030487\MP4SDQ=-185.9941038\CCSD=-185.9534894\CCSD(T)=-186.0
 Normal termination of Gaussian 16 at Mon Mar 26 16:53:05 2018.
