 Gaussian 16, Revision A.03,
 Gaussian 16:  ES64L-G16RevA.03 25-Dec-2016

 ----------------------------------------------------------------------
 #P ROCCSD(T)=(maxcyc=150, Full)/Gen 5d 7f SCF=(maxcycles=300, NoVarAcc
 , VShift=200) MaxDisk=100GB Pop=Regular Pseudo=Read Guess=Read
 ----------------------------------------------------------------------

 --
 Mn
 --
 Symbolic Z-matrix:
 Charge =  0 Multiplicity = 6

                         Standard orientation:
 ---------------------------------------------------------------------
 Center     Atomic      Atomic             Coordinates (Angstroms)
 Number     Number       Type             X           Y           Z
 ---------------------------------------------------------------------
      1         25           0        0.000000    0.000000    0.000000
 ---------------------------------------------------------------------

 SCF Done:  E(ROHF) =  -103.503876605     A.U. after    2 cycles
 E2 =    -0.5656103566D+00 EUMP2 =    -0.10406948696205D+03
 CCSD(T)
 CCSD(T)= -0.10409097405D+03

 The electronic state is 6-A1G.
 Alpha  occ. eigenvalues --   -4.15115  -2.79800  -2.79800  -2.79800  -0.62900
 Alpha  occ. eigenvalues --   -0.62900  -0.62900  -0.62900  -0.62900  -0.26816
 Alpha virt. eigenvalues --    0.01831   0.01831   0.01831   0.02663   0.06560
 Alpha virt. eigenvalues --    0.06560   0.06560   0.08966   0.08966   0.08966
 Alpha virt. eigenvalues --    0.08966   0.08966   0.13913   0.24183   0.24183

 Mulliken charges and spin densities:
               1          2
     1  Mn   0.000000   5.000000
 Sum of Mulliken charges =   0.00000   5.00000

 Dipole moment (field-independent basis, Debye):
    X=              0.0000    Y=              0.0000    Z=              0.0000  Tot=              0.0000
 Quadrupole moment (field-independent basis, Debye-Ang):
   XX=            -18.8419   YY=            -18.8419   ZZ=            -18.8419
   XY=              0.0000   XZ=              0.0000   YZ=             -0.0000

 1\1\GINC-C401-023\SP\ROCCSD(T)-Full\Gen\Mn1(6)\AANNABE\12-Mar-2018\0\\
 #P ROCCSD(T)=(maxcyc=150, Full)/Gen 5d 7f SCF=(maxcycles=300, NoVarAcc
 , VShift=200) MaxDisk=100GB Pop=Regular Pseudo=Read Guess=Read\\Mn\\0,
 6\Mn,0,0.,0.,0.\\Version=ES64L-G16RevA.03\State=6-A1G\HF=-103.5038766\
 MP2=-104.069487\MP3=-104.0704848\PUHF=-103.5038766\PMP2-0=-104.069487\
 MP4SDQ=-104.0735438\CCSD=-104.073656\CCSD(T)=-104.0909741\RMSD=3.976e-
 09\PG=OH [O(Mn1)]\\@

 Normal termination of Gaussian 16 at Mon Mar 12 13:14:03 2018.
