 Gaussian 16, Revision A.03,
 Gaussian 16:  ES64L-G16RevA.03 25-Dec-2016

 ----------------------------------------------------------------------
 #P ROHF/Gen 5d 7f SCF=(maxcycles=300, VShift=300) MaxDisk=100GB Pop=Re
 gular Pseudo=Read Guess=Permute IOp(5/15=2)
 ----------------------------------------------------------------------

 --
 Mn
 --
 Symbolic Z-matrix:
 Charge =  0 Multiplicity = 6

                         Standard orientation:
 ---------------------------------------------------------------------
 Center     Atomic      Atomic             Coordinates (Angstroms)
 Number     Number       Type             X           Y           Z
 ---------------------------------------------------------------------
      1         25           0        0.000000    0.000000    0.000000
 ---------------------------------------------------------------------

 SCF Done:  E(ROHF) =  -103.503876605     A.U. after   24 cycles

 The electronic state is 6-A1G.
 Alpha  occ. eigenvalues --   -3.86008  -2.44454  -2.44454  -2.44454  -0.24470
 Alpha  occ. eigenvalues --   -0.08953  -0.08953  -0.08953  -0.08953  -0.08953
 Alpha virt. eigenvalues --    0.01953   0.01953   0.01953   0.02721   0.06857
 Alpha virt. eigenvalues --    0.06857   0.06857   0.09003   0.09003   0.09003
 Alpha virt. eigenvalues --    0.09003   0.09003   0.14203   0.24825   0.24825

 Mulliken charges and spin densities:
               1          2
     1  Mn   0.000000   5.000000
 Sum of Mulliken charges =   0.00000   5.00000

 Dipole moment (field-independent basis, Debye):
    X=              0.0000    Y=              0.0000    Z=              0.0000  Tot=              0.0000
 Quadrupole moment (field-independent basis, Debye-Ang):
   XX=            -18.8419   YY=            -18.8419   ZZ=            -18.8419
   XY=              0.0000   XZ=             -0.0000   YZ=             -0.0000

 Normal termination of Gaussian 16 at Mon Mar 12 13:04:40 2018.
