 Gaussian 16, Revision A.03,
 Gaussian 16:  ES64L-G16RevA.03 25-Dec-2016

 ----------------------------------------------------------------------
 #P ROCCSD(T)=(maxcyc=150, Full)/Gen 5d 7f SCF=(maxcycles=300) Integral
 (NoXCTest) MaxDisk=500GB Pop=Regular Pseudo=Read
 ----------------------------------------------------------------------

 ---
 CrH
 ---
 Symbolic Z-matrix:
 Charge =  0 Multiplicity = 6

                         Standard orientation:
 ---------------------------------------------------------------------
 Center     Atomic      Atomic             Coordinates (Angstroms)
 Number     Number       Type             X           Y           Z
 ---------------------------------------------------------------------
      1         24           0        0.000000    0.000000    0.060000
      2          1           0        0.000000    0.000000   -1.440000
 ---------------------------------------------------------------------

 SCF Done:  E(ROHF) =  -86.6824987967     A.U. after   31 cycles
 E2 =    -0.5469248739D+00 EUMP2 =    -0.87229423670591D+02
 CCSD(T)
 CCSD(T)= -0.87269719025D+02

 The electronic state is 6-SG.
 Alpha  occ. eigenvalues --   -3.69197  -2.44660  -2.44660  -2.40772  -0.51414
 Alpha  occ. eigenvalues --   -0.51414  -0.48462  -0.48462  -0.42655  -0.25618
 Alpha virt. eigenvalues --    0.01488   0.01488   0.02210   0.02413   0.05793
 Alpha virt. eigenvalues --    0.05793   0.05936   0.07718   0.07718   0.08091
 Alpha virt. eigenvalues --    0.08091   0.08523   0.10206   0.18580   0.21474

 Mulliken charges and spin densities:
               1          2
     1  Cr   0.578566   4.995150
     2  H   -0.578566   0.004850
 Sum of Mulliken charges =   0.00000   5.00000

 Dipole moment (field-independent basis, Debye):
    X=              0.0000    Y=              0.0000    Z=              1.9642  Tot=              1.9642
 Quadrupole moment (field-independent basis, Debye-Ang):
   XX=            -16.9178   YY=            -16.9178   ZZ=            -22.0180
   XY=              0.0000   XZ=              0.0000   YZ=              0.0000

 \\#P ROCCSD(T)=(maxcyc=150, Full)/Gen 5d 7f SCF=(maxcycles=300) Integr
 P4SDQ=-87.2409517\CCSD=-87.2516473\CCSD(T)=-87.269719\RMSD=1.985e-09\P
 Normal termination of Gaussian 16 at Tue Feb 13 02:26:00 2018.
