 Gaussian 16, Revision A.03,
 Gaussian 16:  ES64L-G16RevA.03 25-Dec-2016

 ----------------------------------------------------------------------
 #P ROCCSD(T)=(maxcyc=150, Full)/Gen 5d 7f SCF=(maxcycles=300) Integral
 (NoXCTest, DKHSO) MaxDisk=500GB Pop=Regular IOp(5/15=2) Guess=Read
 ----------------------------------------------------------------------

 ---
 CrH
 ---
 Symbolic Z-matrix:
 Charge =  0 Multiplicity = 6

                         Standard orientation:
 ---------------------------------------------------------------------
 Center     Atomic      Atomic             Coordinates (Angstroms)
 Number     Number       Type             X           Y           Z
 ---------------------------------------------------------------------
      1         24           0        0.000000    0.000000    0.060000
      2          1           0        0.000000    0.000000   -1.440000
 ---------------------------------------------------------------------

 SCF Done:  E(ROHF) =  -1050.19278186     A.U. after   25 cycles
 E2 =    -0.9678638633D+00 EUMP2 =    -0.10511606457211D+04
 CCSD(T)
 CCSD(T)= -0.10511897210D+04

 The electronic state is 6-SG.
 Alpha  occ. eigenvalues -- -222.17323 -26.76493 -22.39911 -22.39911 -22.39858
 Alpha  occ. eigenvalues --   -3.64072  -2.39504  -2.39504  -2.36105  -0.51469
 Alpha  occ. eigenvalues --   -0.51469  -0.48508  -0.48508  -0.42782  -0.25524
 Alpha virt. eigenvalues --    0.01411   0.01411   0.02001   0.02268   0.04634
 Alpha virt. eigenvalues --    0.05216   0.05216   0.05391   0.05391   0.05676
 Alpha virt. eigenvalues --    0.05676   0.06635   0.09546   0.12671   0.16825

 Mulliken charges and spin densities:
               1          2
     1  Cr   0.338406   4.981135
     2  H   -0.338406   0.018865
 Sum of Mulliken charges =  -0.00000   5.00000

 Dipole moment (field-independent basis, Debye):
    X=             -0.0000    Y=             -0.0000    Z=              1.8595  Tot=              1.8595
 Quadrupole moment (field-independent basis, Debye-Ang):
   XX=            -17.2191   YY=            -17.2191   ZZ=            -22.5196
   XY=              0.0000   XZ=             -0.0000   YZ=             -0.0000

 \\#P ROCCSD(T)=(maxcyc=150, Full)/Gen 5d 7f SCF=(maxcycles=300) Integr
 Normal termination of Gaussian 16 at Tue Feb 13 19:55:06 2018.
