 Gaussian 16, Revision A.03,
 Gaussian 16:  ES64L-G16RevA.03 25-Dec-2016

 ----------------------------------------------------------------------
 #P ROCCSD(T)=(maxcyc=150, Full)/Gen 5d 7f SCF=(maxcycles=300) Integral
 (NoXCTest) MaxDisk=500GB Pop=Regular Pseudo=Read IOp(5/15=2) Guess=Rea
 d
 ----------------------------------------------------------------------

 ---
 ScH
 ---
 Symbolic Z-matrix:
 Charge =  0 Multiplicity = 1

                         Standard orientation:
 ---------------------------------------------------------------------
 Center     Atomic      Atomic             Coordinates (Angstroms)
 Number     Number       Type             X           Y           Z
 ---------------------------------------------------------------------
      1         21           0        0.000000    0.000000    0.063636
      2          1           0        0.000000    0.000000   -1.336364
 ---------------------------------------------------------------------

 SCF Done:  E(ROHF) =  -46.7502582354     A.U. after    8 cycles
 E2 =    -0.4413340373D+00 EUMP2 =    -0.47191592272716D+02
 CCSD(T)
 CCSD(T)= -0.47229163723D+02

 The electronic state is 1-SG.
 Alpha  occ. eigenvalues --   -2.70658  -1.63063  -1.61330  -1.61330  -0.45279
 Alpha  occ. eigenvalues --   -0.21966
 Alpha virt. eigenvalues --    0.01246   0.01246   0.01456   0.01683   0.02621
 Alpha virt. eigenvalues --    0.02621   0.02627   0.02627   0.02644   0.04114
 Alpha virt. eigenvalues --    0.04269   0.04269   0.06990   0.07398   0.07398

 Mulliken charges and spin densities:
               1          2
     1  Sc   0.364465   0.000000
     2  H   -0.364465   0.000000
 Sum of Mulliken charges =   0.00000   0.00000

 Dipole moment (field-independent basis, Debye):
    X=              0.0000    Y=              0.0000    Z=              0.6217  Tot=              0.6217
 Quadrupole moment (field-independent basis, Debye-Ang):
   XX=            -23.4544   YY=            -23.4544   ZZ=            -23.9403
   XY=              0.0000   XZ=              0.0000   YZ=              0.0000

 P ROCCSD(T)=(maxcyc=150, Full)/Gen 5d 7f SCF=(maxcycles=300) Integral(
 PMP2-0=-47.1915923\MP4SDQ=-47.2103248\CCSD=-47.209951\CCSD(T)=-47.2291
 Normal termination of Gaussian 16 at Tue Feb 13 23:37:49 2018.
