 Gaussian 16, Revision A.03,
 Gaussian 16:  ES64L-G16RevA.03 25-Dec-2016

 ----------------------------------------------------------------------
 #P ROCCSD(T)=(maxcyc=150, Full, SaveAmplitudes, ReadAmplitudes)/Gen 5d
  7f SCF=(maxcycles=300) Integral(NoXCTest) MaxDisk=500GB Pop=Regular P
 seudo=Read Guess=Read IOp(5/15=2)
 ----------------------------------------------------------------------

 ---
 ScO
 ---
 Symbolic Z-matrix:
 Charge =  0 Multiplicity = 2

                         Standard orientation:
 ---------------------------------------------------------------------
 Center     Atomic      Atomic             Coordinates (Angstroms)
 Number     Number       Type             X           Y           Z
 ---------------------------------------------------------------------
      1         21           0        0.000000    0.000000    0.303448
      2          8           0        0.000000    0.000000   -0.796552
 ---------------------------------------------------------------------

 SCF Done:  E(ROHF) =  -61.2792102426     A.U. after   18 cycles
 E2 =    -0.6389188092D+00 EUMP2 =    -0.61918129051871D+02
 CCSD(T)
 CCSD(T)= -0.61950164799D+02

 The electronic state is 2-SG.
 Alpha  occ. eigenvalues --   -2.70174  -1.86545  -1.54030  -1.54030  -1.03581
 Alpha  occ. eigenvalues --   -0.69593  -0.69593  -0.47115  -0.16500
 Alpha virt. eigenvalues --    0.00947   0.00947   0.01482   0.03002   0.03750
 Alpha virt. eigenvalues --    0.03750   0.03800   0.03800   0.03868   0.04924
 Alpha virt. eigenvalues --    0.04924   0.06745   0.11156   0.11156   0.11354

 Mulliken charges and spin densities:
               1          2
     1  Sc   1.016576   1.057830
     2  O   -1.016576  -0.057830
 Sum of Mulliken charges =  -0.00000   1.00000

 Dipole moment (field-independent basis, Debye):
    X=              0.0000    Y=              0.0000    Z=             -2.4740  Tot=              2.4740
 Quadrupole moment (field-independent basis, Debye-Ang):
   XX=            -24.5448   YY=            -24.5448   ZZ=            -28.5962
   XY=              0.0000   XZ=              0.0000   YZ=              0.0000

 \\#P ROCCSD(T)=(maxcyc=150, Full, SaveAmplitudes, ReadAmplitudes)/Gen
 99\CCSD=-61.9253337\CCSD(T)=-61.9501648\RMSD=4.176e-09\PG=C*V [C*(O1Sc
 Normal termination of Gaussian 16 at Tue Feb 20 19:57:47 2018.
