 Gaussian 16, Revision A.03,
 Gaussian 16:  ES64L-G16RevA.03 25-Dec-2016

 ----------------------------------------------------------------------
 #P ROCCSD(T)=(maxcyc=150, Full)/Gen 5d 7f SCF=(maxcycles=300, NoVarAcc
 , VShift=200) MaxDisk=100GB Pop=Regular Pseudo=Read Guess=Read
 ----------------------------------------------------------------------

 --
 Mn
 --
 Symbolic Z-matrix:
 Charge =  0 Multiplicity = 6

                         Standard orientation:
 ---------------------------------------------------------------------
 Center     Atomic      Atomic             Coordinates (Angstroms)
 Number     Number       Type             X           Y           Z
 ---------------------------------------------------------------------
      1         25           0        0.000000    0.000000    0.000000
 ---------------------------------------------------------------------

 SCF Done:  E(ROHF) =  -103.516644153     A.U. after   18 cycles
 E2 =    -0.5655079855D+00 EUMP2 =    -0.10408215213819D+03
 CCSD(T)
 CCSD(T)= -0.10410313666D+03

 The electronic state is 6-A1G.
 Alpha  occ. eigenvalues --   -4.23151  -2.78542  -2.78542  -2.78542  -0.62961
 Alpha  occ. eigenvalues --   -0.62961  -0.62961  -0.62961  -0.62961  -0.26795
 Alpha virt. eigenvalues --    0.01836   0.01836   0.01836   0.02666   0.06576
 Alpha virt. eigenvalues --    0.06576   0.06576   0.08965   0.08965   0.08965
 Alpha virt. eigenvalues --    0.08965   0.08965   0.13926   0.24223   0.24223

 Mulliken charges and spin densities:
               1          2
     1  Mn  -0.000000   5.000000
 Sum of Mulliken charges =  -0.00000   5.00000

 Dipole moment (field-independent basis, Debye):
    X=              0.0000    Y=              0.0000    Z=              0.0000  Tot=              0.0000
 Quadrupole moment (field-independent basis, Debye-Ang):
   XX=            -18.8666   YY=            -18.8666   ZZ=            -18.8666
   XY=             -0.0000   XZ=              0.0000   YZ=              0.0000

 1\1\GINC-C442-122\SP\ROCCSD(T)-Full\Gen\Mn1(6)\AANNABE\12-Mar-2018\0\\
 #P ROCCSD(T)=(maxcyc=150, Full)/Gen 5d 7f SCF=(maxcycles=300, NoVarAcc
 , VShift=200) MaxDisk=100GB Pop=Regular Pseudo=Read Guess=Read\\Mn\\0,
 6\Mn,0,0.,0.,0.\\Version=ES64L-G16RevA.03\State=6-A1G\HF=-103.5166442\
 MP2=-104.0821521\MP3=-104.082604\PUHF=-103.5166442\PMP2-0=-104.0821521
 \MP4SDQ=-104.0856956\CCSD=-104.0857831\CCSD(T)=-104.1031367\RMSD=8.312
 e-09\PG=OH [O(Mn1)]\\@

 Normal termination of Gaussian 16 at Mon Mar 12 13:48:12 2018.
