 Gaussian 16, Revision A.03,
 Gaussian 16:  ES64L-G16RevA.03 25-Dec-2016

 ----------------------------------------------------------------------
 #P ROCCSD(T)=(maxcyc=150, Full)/Gen 5d 7f SCF=(maxcycles=300) Integral
 (NoXCTest) MaxDisk=500GB Pop=Regular Pseudo=Read IOp(5/15=2) Guess=Rea
 d
 ----------------------------------------------------------------------

 ---
 ScH
 ---
 Symbolic Z-matrix:
 Charge =  0 Multiplicity = 1

                         Standard orientation:
 ---------------------------------------------------------------------
 Center     Atomic      Atomic             Coordinates (Angstroms)
 Number     Number       Type             X           Y           Z
 ---------------------------------------------------------------------
      1         21           0        0.000000    0.000000    0.072727
      2          1           0        0.000000    0.000000   -1.527273
 ---------------------------------------------------------------------

 SCF Done:  E(ROHF) =  -46.7829371881     A.U. after    1 cycles
 E2 =    -0.4138210715D+00 EUMP2 =    -0.47196758259541D+02
 CCSD(T)
 CCSD(T)= -0.47240267116D+02

 The electronic state is 1-SG.
 Alpha  occ. eigenvalues --   -2.73354  -1.64449  -1.63978  -1.63978  -0.43059
 Alpha  occ. eigenvalues --   -0.22586
 Alpha virt. eigenvalues --    0.01226   0.01226   0.01676   0.02157   0.03524
 Alpha virt. eigenvalues --    0.03877   0.03877   0.03917   0.03917   0.04649
 Alpha virt. eigenvalues --    0.04649   0.04987   0.09053   0.09053   0.09405

 Mulliken charges and spin densities:
               1          2
     1  Sc   0.404372   0.000000
     2  H   -0.404372   0.000000
 Sum of Mulliken charges =   0.00000   0.00000

 Dipole moment (field-independent basis, Debye):
    X=              0.0000    Y=              0.0000    Z=              0.9004  Tot=              0.9004
 Quadrupole moment (field-independent basis, Debye-Ang):
   XX=            -23.2293   YY=            -23.2293   ZZ=            -25.4480
   XY=              0.0000   XZ=              0.0000   YZ=              0.0000

 P ROCCSD(T)=(maxcyc=150, Full)/Gen 5d 7f SCF=(maxcycles=300) Integral(
 PMP2-0=-47.1967583\MP4SDQ=-47.2225911\CCSD=-47.2221987\CCSD(T)=-47.240
 Normal termination of Gaussian 16 at Wed Feb 14 01:24:47 2018.
