 Gaussian 16, Revision A.03,
 Gaussian 16:  ES64L-G16RevA.03 25-Dec-2016

 ----------------------------------------------------------------------
 #P ROCCSD(T)=(maxcyc=150, Full)/Gen 5d 7f SCF=(maxcycles=300) Integral
 (NoXCTest) MaxDisk=500GB Pop=Regular Pseudo=Read
 ----------------------------------------------------------------------

 ---
 MnH
 ---
 Symbolic Z-matrix:
 Charge =  0 Multiplicity = 7

                         Standard orientation:
 ---------------------------------------------------------------------
 Center     Atomic      Atomic             Coordinates (Angstroms)
 Number     Number       Type             X           Y           Z
 ---------------------------------------------------------------------
      1         25           0        0.000000    0.000000    0.069231
      2          1           0        0.000000    0.000000   -1.730769
 ---------------------------------------------------------------------

 SCF Done:  E(ROHF) =  -104.061443296     A.U. after   23 cycles
 E2 =    -0.5661052594D+00 EUMP2 =    -0.10462754855545D+03
 CCSD(T)
 CCSD(T)= -0.10465087408D+03

 The electronic state is 7-SG.
 Alpha  occ. eigenvalues --   -4.16713  -2.81451  -2.81451  -2.81200  -0.64870
 Alpha  occ. eigenvalues --   -0.64870  -0.64382  -0.64156  -0.64156  -0.40163
 Alpha  occ. eigenvalues --   -0.26490
 Alpha virt. eigenvalues --    0.01168   0.01168   0.02338   0.03119   0.05641
 Alpha virt. eigenvalues --    0.05641   0.08205   0.08446   0.08446   0.08926
 Alpha virt. eigenvalues --    0.08926   0.09969   0.13744   0.19216   0.22537

 Mulliken charges and spin densities:
               1          2
     1  Mn   0.429074   5.958804
     2  H   -0.429074   0.041196
 Sum of Mulliken charges =  -0.00000   6.00000

 Dipole moment (field-independent basis, Debye):
    X=              0.0000    Y=              0.0000    Z=              1.6540  Tot=              1.6540
 Quadrupole moment (field-independent basis, Debye-Ang):
   XX=            -16.2654   YY=            -16.2654   ZZ=            -26.8268
   XY=              0.0000   XZ=              0.0000   YZ=              0.0000

 \\#P ROCCSD(T)=(maxcyc=150, Full)/Gen 5d 7f SCF=(maxcycles=300) Integr
 486\MP4SDQ=-104.6346514\CCSD=-104.6355992\CCSD(T)=-104.6508741\RMSD=9.
 Normal termination of Gaussian 16 at Tue Feb 13 09:11:35 2018.
