 Gaussian 16, Revision A.03,
 Gaussian 16:  ES64L-G16RevA.03 25-Dec-2016

 ----------------------------------------------------------------------
 #P ROCCSD(T)=(MaxCyc=150, Full)/Gen SCF=(maxcycle=400) Pseudo=Read Int
 egral(NoXCTest) Pop=Regular MaxDisk=500GB
 ----------------------------------------------------------------------

 ---
 FeO
 ---
 Symbolic Z-matrix:
 Charge =  0 Multiplicity = 5

                         Standard orientation:
 ---------------------------------------------------------------------
 Center     Atomic      Atomic             Coordinates (Angstroms)
 Number     Number       Type             X           Y           Z
 ---------------------------------------------------------------------
      1         26           0        0.000000    0.000000    0.376471
      2          8           0        0.000000    0.000000   -1.223529
 ---------------------------------------------------------------------

 SCF Done:  E(ROHF) =  -138.660030678     A.U. after   33 cycles
 E2 =    -0.1034607788D+01 EUMP2 =    -0.13969463846539D+03
 CCSD(T)
 CCSD(T)= -0.13971963398D+03

 Unable to determine electronic state:  partially filled degenerate orbitals.
 Alpha  occ. eigenvalues --   -4.57278  -3.04025  -2.97008  -2.97008  -1.13748
 Alpha  occ. eigenvalues --   -0.68540  -0.68540  -0.64564  -0.64462  -0.59629
 Alpha  occ. eigenvalues --   -0.35528  -0.34995  -0.34995
 Alpha virt. eigenvalues --   -0.04578   0.01591   0.01591   0.01792   0.03581
 Alpha virt. eigenvalues --    0.06272   0.06272   0.06461   0.06471   0.06655
 Alpha virt. eigenvalues --    0.07959   0.07959   0.12035   0.13660   0.19193

 Mulliken charges and spin densities:
               1          2
     1  Fe   1.166036   3.856385
     2  O   -1.166036   0.143615
 Sum of Mulliken charges =  -0.00000   4.00000

 Dipole moment (field-independent basis, Debye):
    X=              0.0000    Y=              0.0000    Z=              8.6793  Tot=              8.6793
 Quadrupole moment (field-independent basis, Debye-Ang):
   XX=            -18.3852   YY=            -18.3852   ZZ=            -22.3754
   XY=              0.0000   XZ=              0.0000   YZ=              0.0000

 \\#P ROCCSD(T)=(MaxCyc=150, Full)/Gen SCF=(maxcycle=400) Pseudo=Read I
 10677\CCSD=-139.670542\CCSD(T)=-139.719634\RMSD=7.256e-09\PG=C*V [C*(O
 Normal termination of Gaussian 16 at Sun Mar 25 02:40:21 2018.
