 Gaussian 16, Revision A.03,
 Gaussian 16:  ES64L-G16RevA.03 25-Dec-2016

 ----------------------------------------------------------------------
 #P ROCCSD(T)=(MaxCyc=150, Full)/Gen SCF=(maxcycle=400) Pseudo=Read Int
 egral(NoXCTest) Pop=Regular MaxDisk=500GB
 ----------------------------------------------------------------------

 ---
 FeO
 ---
 Symbolic Z-matrix:
 Charge =  0 Multiplicity = 5

                         Standard orientation:
 ---------------------------------------------------------------------
 Center     Atomic      Atomic             Coordinates (Angstroms)
 Number     Number       Type             X           Y           Z
 ---------------------------------------------------------------------
      1         26           0        0.000000    0.000000    0.376471
      2          8           0        0.000000    0.000000   -1.223529
 ---------------------------------------------------------------------

 SCF Done:  E(ROHF) =  -138.663309778     A.U. after   31 cycles
 E2 =    -0.9873112895D+00 EUMP2 =    -0.13965062106758D+03
 CCSD(T)
 CCSD(T)= -0.13967806305D+03

 Unable to determine electronic state:  partially filled degenerate orbitals.
 Alpha  occ. eigenvalues --   -4.57443  -3.04008  -2.96987  -2.96987  -1.13774
 Alpha  occ. eigenvalues --   -0.68543  -0.68543  -0.64568  -0.64466  -0.59632
 Alpha  occ. eigenvalues --   -0.35540  -0.34998  -0.34998
 Alpha virt. eigenvalues --   -0.04581   0.01885   0.01885   0.02065   0.04026
 Alpha virt. eigenvalues --    0.07321   0.07321   0.08834   0.09605   0.09637
 Alpha virt. eigenvalues --    0.10746   0.10746   0.14225   0.14809   0.25061

 Mulliken charges and spin densities:
               1          2
     1  Fe   1.165533   3.837870
     2  O   -1.165533   0.162130
 Sum of Mulliken charges =  -0.00000   4.00000

 Dipole moment (field-independent basis, Debye):
    X=              0.0000    Y=              0.0000    Z=              8.6869  Tot=              8.6869
 Quadrupole moment (field-independent basis, Debye-Ang):
   XX=            -18.3841   YY=            -18.3841   ZZ=            -22.3956
   XY=              0.0000   XZ=              0.0000   YZ=              0.0000

 \\#P ROCCSD(T)=(MaxCyc=150, Full)/Gen SCF=(maxcycle=400) Pseudo=Read I
 22734\CCSD=-139.631235\CCSD(T)=-139.6780631\RMSD=4.698e-09\PG=C*V [C*(
 Normal termination of Gaussian 16 at Sun Mar 25 00:33:54 2018.
