 Gaussian 16, Revision A.03,
 Gaussian 16:  ES64L-G16RevA.03 25-Dec-2016

 ----------------------------------------------------------------------
 #P ROCCSD(T)=(MaxCyc=150, Full)/Gen SCF=(maxcycle=400) Pseudo=Read Int
 egral(NoXCTest) Pop=Regular MaxDisk=500GB
 ----------------------------------------------------------------------

 ---
 FeO
 ---
 Symbolic Z-matrix:
 Charge =  0 Multiplicity = 5

                         Standard orientation:
 ---------------------------------------------------------------------
 Center     Atomic      Atomic             Coordinates (Angstroms)
 Number     Number       Type             X           Y           Z
 ---------------------------------------------------------------------
      1         26           0        0.000000    0.000000    0.282353
      2          8           0        0.000000    0.000000   -0.917647
 ---------------------------------------------------------------------

 SCF Done:  E(ROHF) =  -138.377130737     A.U. after   26 cycles
 E2 =    -0.1088991265D+01 EUMP2 =    -0.13946612200255D+03
 CCSD(T)
 CCSD(T)= -0.13945125269D+03

 Unable to determine electronic state:  partially filled degenerate orbitals.
 Alpha  occ. eigenvalues --   -4.55293  -3.03386  -2.94070  -2.94070  -1.31369
 Alpha  occ. eigenvalues --   -0.80612  -0.80612  -0.67118  -0.61089  -0.56774
 Alpha  occ. eigenvalues --   -0.41807  -0.41807  -0.29105
 Alpha virt. eigenvalues --    0.02247   0.02445   0.02445   0.02817   0.05932
 Alpha virt. eigenvalues --    0.06543   0.06543   0.06699   0.06710   0.08311
 Alpha virt. eigenvalues --    0.08311   0.09010   0.11064   0.16254   0.19950

 Mulliken charges and spin densities:
               1          2
     1  Fe   0.865011   3.702726
     2  O   -0.865011   0.297274
 Sum of Mulliken charges =  -0.00000   4.00000

 Dipole moment (field-independent basis, Debye):
    X=              0.0000    Y=              0.0000    Z=              1.4721  Tot=              1.4721
 Quadrupole moment (field-independent basis, Debye-Ang):
   XX=            -19.6144   YY=            -19.6144   ZZ=            -21.3660
   XY=              0.0000   XZ=              0.0000   YZ=              0.0000

 \\#P ROCCSD(T)=(MaxCyc=150, Full)/Gen SCF=(maxcycle=400) Pseudo=Read I
 504\CCSD=-139.4068059\CCSD(T)=-139.4512527\RMSD=3.281e-09\PG=C*V [C*(O
 Normal termination of Gaussian 16 at Sun Mar 25 02:20:48 2018.
