 Gaussian 16, Revision A.03,
 Gaussian 16:  ES64L-G16RevA.03 25-Dec-2016

 ----------------------------------------------------------------------
 #P ROCCSD(T)=(MaxCyc=150, Full)/Gen SCF=(maxcycle=400) Pseudo=Read Int
 egral(NoXCTest) Pop=Regular MaxDisk=500GB
 ----------------------------------------------------------------------

 ---
 FeO
 ---
 Symbolic Z-matrix:
 Charge =  0 Multiplicity = 5

                         Standard orientation:
 ---------------------------------------------------------------------
 Center     Atomic      Atomic             Coordinates (Angstroms)
 Number     Number       Type             X           Y           Z
 ---------------------------------------------------------------------
      1         26           0        0.000000    0.000000    0.282353
      2          8           0        0.000000    0.000000   -0.917647
 ---------------------------------------------------------------------

 SCF Done:  E(ROHF) =  -138.378585682     A.U. after   26 cycles
 E2 =    -0.1040208841D+01 EUMP2 =    -0.13941879452356D+03
 CCSD(T)
 CCSD(T)= -0.13940614363D+03

 Unable to determine electronic state:  partially filled degenerate orbitals.
 Alpha  occ. eigenvalues --   -4.55467  -3.03417  -2.94066  -2.94066  -1.31410
 Alpha  occ. eigenvalues --   -0.80611  -0.80611  -0.67128  -0.61104  -0.56785
 Alpha  occ. eigenvalues --   -0.41818  -0.41818  -0.29124
 Alpha virt. eigenvalues --    0.02370   0.02685   0.02685   0.03066   0.07435
 Alpha virt. eigenvalues --    0.08605   0.08605   0.09960   0.09992   0.10190
 Alpha virt. eigenvalues --    0.10190   0.11549   0.12092   0.18001   0.26607

 Mulliken charges and spin densities:
               1          2
     1  Fe   0.612842   3.691747
     2  O   -0.612842   0.308253
 Sum of Mulliken charges =  -0.00000   4.00000

 Dipole moment (field-independent basis, Debye):
    X=              0.0000    Y=              0.0000    Z=              1.4829  Tot=              1.4829
 Quadrupole moment (field-independent basis, Debye-Ang):
   XX=            -19.6112   YY=            -19.6112   ZZ=            -21.3854
   XY=              0.0000   XZ=              0.0000   YZ=              0.0000

 \\#P ROCCSD(T)=(MaxCyc=150, Full)/Gen SCF=(maxcycle=400) Pseudo=Read I
 85673\CCSD=-139.3638096\CCSD(T)=-139.4061436\RMSD=2.418e-09\PG=C*V [C*
 Normal termination of Gaussian 16 at Sun Mar 25 00:29:33 2018.
