 Gaussian 16, Revision A.03,
 Gaussian 16:  ES64L-G16RevA.03 25-Dec-2016

 ----------------------------------------------------------------------
 #P ROCCSD(T)=(MaxCyc=150, Full)/Gen SCF=(maxcycle=400, vshift=200) Pse
 udo=Read Integral(NoXCTest) Pop=Regular MaxDisk=500GB Guess=Read IOp(5
 /15=2)
 ----------------------------------------------------------------------

 ---
 CoH
 ---
 Symbolic Z-matrix:
 Charge =  0 Multiplicity = 3

                         Standard orientation:
 ---------------------------------------------------------------------
 Center     Atomic      Atomic             Coordinates (Angstroms)
 Number     Number       Type             X           Y           Z
 ---------------------------------------------------------------------
      1         27           0        0.000000    0.000000    0.064286
      2          1           0        0.000000    0.000000   -1.735714
 ---------------------------------------------------------------------

 SCF Done:  E(ROHF) =  -145.418019142     A.U. after   26 cycles
 E2 =    -0.9219630475D+00 EUMP2 =    -0.14633998218960D+03
 CCSD(T)
 CCSD(T)= -0.14632299787D+03

 Unable to determine electronic state:  partially filled degenerate orbitals.
 Alpha  occ. eigenvalues --   -4.40636  -2.92870  -2.92870  -2.92866  -0.49554
 Alpha  occ. eigenvalues --   -0.48988  -0.44653  -0.44216  -0.44216  -0.32059
 Alpha virt. eigenvalues --   -0.00651   0.02242   0.02242   0.02874   0.03522
 Alpha virt. eigenvalues --    0.06402   0.06563   0.06574   0.06883   0.06883
 Alpha virt. eigenvalues --    0.08044   0.08044   0.08961   0.13923   0.17078

 Mulliken charges and spin densities:
               1          2
     1  Co   0.336125   1.995766
     2  H   -0.336125   0.004234
 Sum of Mulliken charges =  -0.00000   2.00000

 Dipole moment (field-independent basis, Debye):
    X=              0.0000    Y=              0.0000    Z=              4.9556  Tot=              4.9556
 Quadrupole moment (field-independent basis, Debye-Ang):
   XX=            -13.9697   YY=            -13.9697   ZZ=            -19.5480
   XY=              0.0000   XZ=              0.0000   YZ=              0.0000

 \\#P ROCCSD(T)=(MaxCyc=150, Full)/Gen SCF=(maxcycle=400, vshift=200) P
 \PMP2-0=-146.3399822\MP4SDQ=-146.3123449\CCSD=-146.2909437\CCSD(T)=-14
 Normal termination of Gaussian 16 at Sat Apr 28 21:10:45 2018.
