 Gaussian 16, Revision A.03,
 Gaussian 16:  ES64L-G16RevA.03 25-Dec-2016

 ----------------------------------------------------------------------
 #P ROCCSD(T)=(MaxCyc=150, Full)/Gen SCF=(maxcycle=400, vshift=200) Pse
 udo=Read Integral(NoXCTest) Pop=Regular MaxDisk=500GB Guess=Read IOp(5
 /15=2)
 ----------------------------------------------------------------------

 ---
 CoH
 ---
 Symbolic Z-matrix:
 Charge =  0 Multiplicity = 3

                         Standard orientation:
 ---------------------------------------------------------------------
 Center     Atomic      Atomic             Coordinates (Angstroms)
 Number     Number       Type             X           Y           Z
 ---------------------------------------------------------------------
      1         27           0        0.000000    0.000000    0.064286
      2          1           0        0.000000    0.000000   -1.735714
 ---------------------------------------------------------------------

 SCF Done:  E(ROHF) =  -145.417516343     A.U. after   39 cycles
 E2 =    -0.9022220055D+00 EUMP2 =    -0.14631973834824D+03
 CCSD(T)
 CCSD(T)= -0.14630502284D+03

 Unable to determine electronic state:  partially filled degenerate orbitals.
 Alpha  occ. eigenvalues --   -4.40621  -2.92872  -2.92872  -2.92868  -0.49556
 Alpha  occ. eigenvalues --   -0.48990  -0.44648  -0.44211  -0.44211  -0.32058
 Alpha virt. eigenvalues --   -0.00623   0.02318   0.02318   0.03212   0.04072
 Alpha virt. eigenvalues --    0.06973   0.07258   0.07272   0.07550   0.07550
 Alpha virt. eigenvalues --    0.08437   0.08437   0.10305   0.17215   0.19396

 Mulliken charges and spin densities:
               1          2
     1  Co   0.366919   1.997005
     2  H   -0.366919   0.002995
 Sum of Mulliken charges =  -0.00000   2.00000

 Dipole moment (field-independent basis, Debye):
    X=              0.0000    Y=              0.0000    Z=              4.9561  Tot=              4.9561
 Quadrupole moment (field-independent basis, Debye-Ang):
   XX=            -13.9705   YY=            -13.9705   ZZ=            -19.5475
   XY=              0.0000   XZ=              0.0000   YZ=              0.0000

 \\#P ROCCSD(T)=(MaxCyc=150, Full)/Gen SCF=(maxcycle=400, vshift=200) P
 \PMP2-0=-146.3197383\MP4SDQ=-146.295246\CCSD=-146.2735387\CCSD(T)=-146
 Normal termination of Gaussian 16 at Sat Apr 21 23:37:45 2018.
