 Gaussian 16, Revision A.03,
 Gaussian 16:  ES64L-G16RevA.03 25-Dec-2016

 ----------------------------------------------------------------------
 #P ROCCSD(T)=(MaxCyc=150, Full)/Gen SCF=(maxcycle=400, vshift=200) Pse
 udo=Read Integral(NoXCTest) Pop=Regular MaxDisk=500GB Guess=Read IOp(5
 /15=2)
 ----------------------------------------------------------------------

 ---
 CoH
 ---
 Symbolic Z-matrix:
 Charge =  0 Multiplicity = 3

                         Standard orientation:
 ---------------------------------------------------------------------
 Center     Atomic      Atomic             Coordinates (Angstroms)
 Number     Number       Type             X           Y           Z
 ---------------------------------------------------------------------
      1         27           0        0.000000    0.000000    0.064286
      2          1           0        0.000000    0.000000   -1.735714
 ---------------------------------------------------------------------

 SCF Done:  E(ROHF) =  -145.415890722     A.U. after  118 cycles
 E2 =    -0.8611382191D+00 EUMP2 =    -0.14627702894097D+03
 CCSD(T)
 CCSD(T)= -0.14626400648D+03

 Unable to determine electronic state:  partially filled degenerate orbitals.
 Alpha  occ. eigenvalues --   -4.40657  -2.92884  -2.92884  -2.92879  -0.49544
 Alpha  occ. eigenvalues --   -0.48975  -0.44635  -0.44195  -0.44195  -0.32056
 Alpha virt. eigenvalues --   -0.00612   0.02569   0.02569   0.03547   0.04352
 Alpha virt. eigenvalues --    0.09230   0.09230   0.10088   0.11161   0.11206
 Alpha virt. eigenvalues --    0.11456   0.11456   0.11720   0.18399   0.23957

 Mulliken charges and spin densities:
               1          2
     1  Co   0.387017   1.992059
     2  H   -0.387017   0.007941
 Sum of Mulliken charges =  -0.00000   2.00000

 Dipole moment (field-independent basis, Debye):
    X=              0.0000    Y=              0.0000    Z=              4.9604  Tot=              4.9604
 Quadrupole moment (field-independent basis, Debye-Ang):
   XX=            -13.9851   YY=            -13.9851   ZZ=            -19.5396
   XY=              0.0000   XZ=              0.0000   YZ=              0.0000

 \\#P ROCCSD(T)=(MaxCyc=150, Full)/Gen SCF=(maxcycle=400, vshift=200) P
 PMP2-0=-146.2770289\MP4SDQ=-146.2562095\CCSD=-146.2340592\CCSD(T)=-146
 Normal termination of Gaussian 16 at Sat Apr 21 22:53:57 2018.
