 Gaussian 16, Revision A.03,
 Gaussian 16:  ES64L-G16RevA.03 25-Dec-2016

 ----------------------------------------------------------------------
 #P ROCCSD(T)=(maxcyc=150, Full, SaveAmplitudes, ReadAmplitudes)/Gen 5d
  7f SCF=(maxcycles=300, VShift=400) Integral(NoXCTest) MaxDisk=500GB P
 op=Full Pseudo=Read Guess=Read IOp(5/15=2)
 ----------------------------------------------------------------------

 ---
 MnH
 ---
 Symbolic Z-matrix:
 Charge =  0 Multiplicity = 7

                         Standard orientation:
 ---------------------------------------------------------------------
 Center     Atomic      Atomic             Coordinates (Angstroms)
 Number     Number       Type             X           Y           Z
 ---------------------------------------------------------------------
      1         25           0        0.000000    0.000000    0.061538
      2          1           0        0.000000    0.000000   -1.538462
 ---------------------------------------------------------------------

 SCF Done:  E(ROHF) =  -103.793249208     A.U. after   35 cycles
 E2 =    -0.5767439859D+00 EUMP2 =    -0.10436999319411D+03
 CCSD(T)
 CCSD(T)= -0.10439179875D+03

 The electronic state is 7-SG.
 Alpha  occ. eigenvalues --   -4.14625  -2.76649  -2.76649  -2.76544  -0.64371
 Alpha  occ. eigenvalues --   -0.64143  -0.64143  -0.63495  -0.63495  -0.41445
 Alpha  occ. eigenvalues --   -0.25725
 Alpha virt. eigenvalues --    0.01308   0.01308   0.02296   0.03159   0.05787
 Alpha virt. eigenvalues --    0.05787   0.08386   0.08493   0.08493   0.08957
 Alpha virt. eigenvalues --    0.08957   0.09584   0.14030   0.20211   0.22753

 Mulliken charges and spin densities:
               1          2
     1  Mn   0.435365   5.957826
     2  H   -0.435365   0.042174
 Sum of Mulliken charges =  -0.00000   6.00000

 Dipole moment (field-independent basis, Debye):
    X=              0.0000    Y=              0.0000    Z=              0.9545  Tot=              0.9545
 Quadrupole moment (field-independent basis, Debye-Ang):
   XX=            -16.1169   YY=            -16.1169   ZZ=            -25.9825
   XY=              0.0000   XZ=              0.0000   YZ=              0.0000

 \\#P ROCCSD(T)=(maxcyc=150, Full, SaveAmplitudes, ReadAmplitudes)/Gen
 4SDQ=-104.3752422\CCSD=-104.3759319\CCSD(T)=-104.3917988\RMSD=7.090e-0
 Normal termination of Gaussian 16 at Sat May  5 09:20:07 2018.
