 Gaussian 16, Revision A.03,
 Gaussian 16:  ES64L-G16RevA.03 25-Dec-2016

 ----------------------------------------------------------------------
 #P ROCCSD(T)=(MaxCyc=150, Full)/Gen SCF=(maxcycle=400) Integral(DKHSO,
  NoXCTest) Pop=Regular MaxDisk=500GB Guess=Read
 ----------------------------------------------------------------------

 ---
 CoO
 ---
 Symbolic Z-matrix:
 Charge =  0 Multiplicity = 4

                         Standard orientation:
 ---------------------------------------------------------------------
 Center     Atomic      Atomic             Coordinates (Angstroms)
 Number     Number       Type             X           Y           Z
 ---------------------------------------------------------------------
      1         27           0        0.000000    0.000000    0.320000
      2          8           0        0.000000    0.000000   -1.080000
 ---------------------------------------------------------------------

 SCF Done:  E(ROHF) =  -1466.64053039     A.U. after   23 cycles
 E2 =    -0.1650655308D+01 EUMP2 =    -0.14682911856998D+04
 CCSD(T)
 CCSD(T)= -0.14682732086D+04

 Unable to determine electronic state:  partially filled degenerate orbitals.
 Alpha  occ. eigenvalues -- -285.82654 -35.57150 -30.33566 -30.33566 -30.33560
 Alpha  occ. eigenvalues --  -20.52848  -4.80417  -3.25100  -3.22664  -3.22664
 Alpha  occ. eigenvalues --   -1.24671  -0.79998  -0.79998  -0.75244  -0.70210
 Alpha  occ. eigenvalues --   -0.67616  -0.43606  -0.43606  -0.35743
 Alpha virt. eigenvalues --   -0.02019   0.02323   0.02323   0.03045   0.03593
 Alpha virt. eigenvalues --    0.07025   0.07025   0.07102   0.07290   0.07298
 Alpha virt. eigenvalues --    0.08951   0.08951   0.12576   0.15431   0.21689

 Mulliken charges and spin densities:
               1          2
     1  Co   0.886331   2.792144
     2  O   -0.886331   0.207856
 Sum of Mulliken charges =  -0.00000   3.00000

 Dipole moment (field-independent basis, Debye):
    X=              0.0000    Y=              0.0000    Z=              5.5218  Tot=              5.5218
 Quadrupole moment (field-independent basis, Debye-Ang):
   XX=            -19.5356   YY=            -19.5356   ZZ=            -20.4573
   XY=              0.0000   XZ=              0.0000   YZ=              0.0000

 \\#P ROCCSD(T)=(MaxCyc=150, Full)/Gen SCF=(maxcycle=400) Integral(DKHS
 SDQ=-1468.2400193\CCSD=-1468.2173169\CCSD(T)=-1468.2732086\RMSD=5.377e
 Normal termination of Gaussian 16 at Tue Apr  3 00:01:25 2018.
