 Gaussian 16, Revision A.03,
 Gaussian 16:  ES64L-G16RevA.03 25-Dec-2016

 ----------------------------------------------------------------------
 #P ROCCSD(T)=(maxcyc=150, Full, SaveAmplitudes, ReadAmplitudes)/Gen 5d
  7f SCF=(maxcycles=300) Integral(NoXCTest) MaxDisk=500GB Pop=Regular P
 seudo=Read Guess=Read IOp(5/15=2)
 ----------------------------------------------------------------------

 ---
 CrO
 ---
 Symbolic Z-matrix:
 Charge =  0 Multiplicity = 5

                         Standard orientation:
 ---------------------------------------------------------------------
 Center     Atomic      Atomic             Coordinates (Angstroms)
 Number     Number       Type             X           Y           Z
 ---------------------------------------------------------------------
      1         24           0        0.000000    0.000000    0.300000
      2          8           0        0.000000    0.000000   -0.900000
 ---------------------------------------------------------------------

 SCF Done:  E(ROHF) =  -101.744947698     A.U. after   28 cycles
 E2 =    -0.8992672823D+00 EUMP2 =    -0.10264421498043D+03
 CCSD(T)
 CCSD(T)= -0.10265142890D+03

 Unable to determine electronic state:  an orbital has unidentified symmetry.
 Alpha  occ. eigenvalues --   -3.68231  -2.47305  -2.43375  -2.39557  -1.26919
 Alpha  occ. eigenvalues --   -0.74626  -0.68889  -0.65505  -0.50276  -0.50182
 Alpha  occ. eigenvalues --   -0.30336  -0.26586
 Alpha virt. eigenvalues --    0.01419   0.02446   0.02809   0.02810   0.05350
 Alpha virt. eigenvalues --    0.06978   0.07673   0.07743   0.07795   0.07797
 Alpha virt. eigenvalues --    0.09751   0.09939   0.12165   0.17746   0.20412

 Mulliken charges and spin densities:
               1          2
     1  Cr   0.856292   3.732102
     2  O   -0.856292   0.267898
 Sum of Mulliken charges =  -0.00000   4.00000

 Dipole moment (field-independent basis, Debye):
    X=              0.0000    Y=              0.0000    Z=              0.2706  Tot=              0.2706
 Quadrupole moment (field-independent basis, Debye-Ang):
   XX=            -22.7923   YY=            -19.8528   ZZ=            -22.7843
   XY=              0.0000   XZ=              0.0000   YZ=              0.0000

 \\#P ROCCSD(T)=(maxcyc=150, Full, SaveAmplitudes, ReadAmplitudes)/Gen
 -102.6117167\CCSD(T)=-102.6514289\RMSD=3.848e-09\PG=C*V [C*(O1Cr1)]\\@
 Normal termination of Gaussian 16 at Mon Mar 12 14:30:56 2018.
