 Gaussian 16, Revision A.03,
 Gaussian 16:  ES64L-G16RevA.03 25-Dec-2016

 ----------------------------------------------------------------------
 #P ROCCSD(T)=(maxcyc=150, Full, SaveAmplitudes, ReadAmplitudes)/Gen 5d
  7f SCF=(maxcycles=300, VShift=400) Integral(NoXCTest) MaxDisk=500GB P
 op=Full Pseudo=Read Guess=Read
 ----------------------------------------------------------------------

 ---
 ScH
 ---
 Symbolic Z-matrix:
 Charge =  0 Multiplicity = 1

                         Standard orientation:
 ---------------------------------------------------------------------
 Center     Atomic      Atomic             Coordinates (Angstroms)
 Number     Number       Type             X           Y           Z
 ---------------------------------------------------------------------
      1         21           0        0.000000    0.000000    0.054545
      2          1           0        0.000000    0.000000   -1.145455
 ---------------------------------------------------------------------

 SCF Done:  E(ROHF) =  -46.5592403593     A.U. after   22 cycles
 E2 =    -0.4330274856D+00 EUMP2 =    -0.46992267844873D+02
 CCSD(T)
 CCSD(T)= -0.47029924758D+02

 The electronic state is 1-SG.
 Alpha  occ. eigenvalues --   -2.61052  -1.63996  -1.59418  -1.59418  -0.46956
 Alpha  occ. eigenvalues --   -0.21434
 Alpha virt. eigenvalues --    0.01309   0.01309   0.01379   0.01989   0.02884
 Alpha virt. eigenvalues --    0.02884   0.02899   0.02904   0.02904   0.04308
 Alpha virt. eigenvalues --    0.04446   0.04446   0.08058   0.08245   0.08245

 Mulliken charges and spin densities:
               1          2
     1  Sc   0.200199   0.000000
     2  H   -0.200199   0.000000
 Sum of Mulliken charges =  -0.00000   0.00000

 Dipole moment (field-independent basis, Debye):
    X=              0.0000    Y=              0.0000    Z=              0.7705  Tot=              0.7705
 Quadrupole moment (field-independent basis, Debye-Ang):
   XX=            -23.6882   YY=            -23.6882   ZZ=            -22.5962
   XY=              0.0000   XZ=              0.0000   YZ=              0.0000

 P ROCCSD(T)=(maxcyc=150, Full, SaveAmplitudes, ReadAmplitudes)/Gen 5d
 =-46.5592404\PMP2-0=-46.9922678\CCSD=-47.0115029\CCSD(T)=-47.0299248\R
 Normal termination of Gaussian 16 at Thu Apr 19 08:07:11 2018.
