 Gaussian 16, Revision A.03,
 Gaussian 16:  ES64L-G16RevA.03 25-Dec-2016

 ----------------------------------------------------------------------
 #P ROCCSD(T)=(MaxCyc=150, FrzINGC)/Gen SCF=(maxcycle=400, vshift=200)
 Integral(DKHSO, NoXCTest) Pop=Regular MaxDisk=500GB Guess=Read IOp(5/1
 5=2)
 ----------------------------------------------------------------------

 ---
 ZnH
 ---
 Symbolic Z-matrix:
 Charge =  0 Multiplicity = 2

                         Standard orientation:
 ---------------------------------------------------------------------
 Center     Atomic      Atomic             Coordinates (Angstroms)
 Number     Number       Type             X           Y           Z
 ---------------------------------------------------------------------
      1         30           0        0.000000    0.000000    0.045161
      2          1           0        0.000000    0.000000   -1.354839
 ---------------------------------------------------------------------

 SCF Done:  E(ROHF) =  -1794.79419759     A.U. after   18 cycles
 E2 =    -0.1095092034D+01 EUMP2 =    -0.17958892896281D+04
 CCSD(T)
 CCSD(T)= -0.17958195044D+04

 The electronic state is 2-SG.
 Alpha  occ. eigenvalues -- -357.59286 -45.36219 -39.16487 -39.16487 -39.16411
 Alpha  occ. eigenvalues --   -5.83227  -3.91231  -3.91018  -3.91018  -0.80599
 Alpha  occ. eigenvalues --   -0.79818  -0.79818  -0.79472  -0.79472  -0.47647
 Alpha  occ. eigenvalues --   -0.27186
 Alpha virt. eigenvalues --    0.02010   0.02010   0.02613   0.03687   0.06809
 Alpha virt. eigenvalues --    0.06809   0.07931   0.14282   0.17531   0.17880
 Alpha virt. eigenvalues --    0.17880   0.18171   0.18171   0.21515   0.23334

 Mulliken charges and spin densities:
               1          2
     1  Zn   0.281948   0.936217
     2  H   -0.281948   0.063783
 Sum of Mulliken charges =  -0.00000   1.00000

 Dipole moment (field-independent basis, Debye):
    X=              0.0000    Y=             -0.0000    Z=              0.2122  Tot=              0.2122
 Quadrupole moment (field-independent basis, Debye-Ang):
   XX=            -14.6705   YY=            -14.6705   ZZ=            -20.9390
   XY=              0.0000   XZ=              0.0000   YZ=              0.0000

 \#P ROCCSD(T)=(MaxCyc=150, FrzINGC)/Gen SCF=(maxcycle=400, vshift=200)
 778\CCSD(T)=-1795.8195044\RMSD=5.740e-09\PG=C*V [C*(H1Zn1)]\\@
 Normal termination of Gaussian 16 at Sat Apr 21 11:03:06 2018.
