 Gaussian 16, Revision A.03,
 Gaussian 16:  ES64L-G16RevA.03 25-Dec-2016

 ----------------------------------------------------------------------
 #P ROCCSD(T)=(maxcyc=150, Full, SaveAmplitudes, ReadAmplitudes)/Gen 5d
  7f SCF=(maxcycles=300) Integral(NoXCTest) MaxDisk=500GB Pop=Regular P
 seudo=Read Guess=Read IOp(5/15=2)
 ----------------------------------------------------------------------

 ---
 ScO
 ---
 Symbolic Z-matrix:
 Charge =  0 Multiplicity = 2

                         Standard orientation:
 ---------------------------------------------------------------------
 Center     Atomic      Atomic             Coordinates (Angstroms)
 Number     Number       Type             X           Y           Z
 ---------------------------------------------------------------------
      1         21           0        0.000000    0.000000    0.386207
      2          8           0        0.000000    0.000000   -1.013793
 ---------------------------------------------------------------------

 SCF Done:  E(ROHF) =  -61.9944443013     A.U. after   16 cycles
 E2 =    -0.6713454195D+00 EUMP2 =    -0.62665789720781D+02
 CCSD(T)
 CCSD(T)= -0.62692939534D+02

 The electronic state is 2-SG.
 Alpha  occ. eigenvalues --   -2.62185  -1.71916  -1.55273  -1.55273  -1.09429
 Alpha  occ. eigenvalues --   -0.52363  -0.52363  -0.46080  -0.21149
 Alpha virt. eigenvalues --    0.00857   0.00857   0.02192   0.02223   0.03753
 Alpha virt. eigenvalues --    0.03753   0.03845   0.03845   0.03999   0.04563
 Alpha virt. eigenvalues --    0.04563   0.07115   0.10435   0.10435   0.10914

 Mulliken charges and spin densities:
               1          2
     1  Sc   1.250510   0.988939
     2  O   -1.250510   0.011061
 Sum of Mulliken charges =  -0.00000   1.00000

 Dipole moment (field-independent basis, Debye):
    X=              0.0000    Y=              0.0000    Z=              1.6030  Tot=              1.6030
 Quadrupole moment (field-independent basis, Debye-Ang):
   XX=            -22.2100   YY=            -22.2100   ZZ=            -30.0704
   XY=              0.0000   XZ=              0.0000   YZ=              0.0000

 \\#P ROCCSD(T)=(maxcyc=150, Full, SaveAmplitudes, ReadAmplitudes)/Gen
 4\CCSD=-62.6604821\CCSD(T)=-62.6929395\RMSD=4.230e-09\PG=C*V [C*(O1Sc1
 Normal termination of Gaussian 16 at Tue Feb 27 13:06:10 2018.
