 Gaussian 16, Revision A.03,
 Gaussian 16:  ES64L-G16RevA.03 25-Dec-2016

 ----------------------------------------------------------------------
 #P ROCCSD(T)=(MaxCyc=150, Full)/Gen SCF=(maxcycle=400) Pseudo=Read Int
 egral(NoXCTest) Pop=Regular MaxDisk=500GB Guess=Read IOp(5/15=2)
 ----------------------------------------------------------------------

 ---
 ZnO
 ---
 Symbolic Z-matrix:
 Charge =  0 Multiplicity = 1

                         Standard orientation:
 ---------------------------------------------------------------------
 Center     Atomic      Atomic             Coordinates (Angstroms)
 Number     Number       Type             X           Y           Z
 ---------------------------------------------------------------------
      1         30           0        0.000000    0.000000    0.315789
      2          8           0        0.000000    0.000000   -1.184211
 ---------------------------------------------------------------------

 SCF Done:  E(ROHF) =  -241.222300160     A.U. after   12 cycles
 E2 =    -0.1399170322D+01 EUMP2 =    -0.24262147048184D+03
 CCSD(T)
 CCSD(T)= -0.24255658729D+03

 The electronic state is 1-SG.
 Alpha  occ. eigenvalues --   -5.91345  -4.03460  -4.02653  -4.02653  -1.20491
 Alpha  occ. eigenvalues --   -0.83956  -0.83956  -0.82210  -0.82210  -0.79374
 Alpha  occ. eigenvalues --   -0.39785  -0.39785  -0.39342
 Alpha virt. eigenvalues --   -0.04412   0.02561   0.02561   0.02567   0.04197
 Alpha virt. eigenvalues --    0.08247   0.08247   0.12161   0.16567   0.17880
 Alpha virt. eigenvalues --    0.17948   0.17948   0.20507   0.20507   0.23067

 Mulliken charges and spin densities:
               1          2
     1  Zn   1.060658   0.000000
     2  O   -1.060658   0.000000
 Sum of Mulliken charges =  -0.00000   0.00000

 Dipole moment (field-independent basis, Debye):
    X=              0.0000    Y=              0.0000    Z=              7.0483  Tot=              7.0483
 Quadrupole moment (field-independent basis, Debye-Ang):
   XX=            -17.9191   YY=            -17.9191   ZZ=            -20.7503
   XY=              0.0000   XZ=              0.0000   YZ=              0.0000

 P ROCCSD(T)=(MaxCyc=150, Full)/Gen SCF=(maxcycle=400) Pseudo=Read Inte
 2-0=-242.6214705\MP4SDQ=-242.5520355\CCSD=-242.5059474\CCSD(T)=-242.55
 Normal termination of Gaussian 16 at Tue Mar 27 14:08:50 2018.
