 Gaussian 16, Revision A.03,
 Gaussian 16:  ES64L-G16RevA.03 25-Dec-2016

 ----------------------------------------------------------------------
 #P ROCCSD(T)=(MaxCyc=150, Full)/Gen SCF=(maxcycle=400) Pseudo=Read Int
 egral(NoXCTest) Pop=Regular MaxDisk=500GB Guess=Read IOp(5/15=2)
 ----------------------------------------------------------------------

 ---
 ZnO
 ---
 Symbolic Z-matrix:
 Charge =  0 Multiplicity = 1

                         Standard orientation:
 ---------------------------------------------------------------------
 Center     Atomic      Atomic             Coordinates (Angstroms)
 Number     Number       Type             X           Y           Z
 ---------------------------------------------------------------------
      1         30           0        0.000000    0.000000    0.315789
      2          8           0        0.000000    0.000000   -1.184211
 ---------------------------------------------------------------------

 SCF Done:  E(ROHF) =  -241.219385515     A.U. after    1 cycles
 E2 =    -0.1330417118D+01 EUMP2 =    -0.24254980263291D+03
 CCSD(T)
 CCSD(T)= -0.24248737506D+03

 The electronic state is 1-SG.
 Alpha  occ. eigenvalues --   -5.91359  -4.03486  -4.02670  -4.02670  -1.20540
 Alpha  occ. eigenvalues --   -0.83967  -0.83967  -0.82217  -0.82217  -0.79392
 Alpha  occ. eigenvalues --   -0.39779  -0.39779  -0.39356
 Alpha virt. eigenvalues --   -0.04423   0.02801   0.02838   0.02838   0.04664
 Alpha virt. eigenvalues --    0.09493   0.09493   0.13504   0.17908   0.22009
 Alpha virt. eigenvalues --    0.23708   0.23708   0.24886   0.24886   0.30127

 Mulliken charges and spin densities:
               1          2
     1  Zn   1.229274   0.000000
     2  O   -1.229274   0.000000
 Sum of Mulliken charges =  -0.00000   0.00000

 Dipole moment (field-independent basis, Debye):
    X=              0.0000    Y=              0.0000    Z=              7.0618  Tot=              7.0618
 Quadrupole moment (field-independent basis, Debye-Ang):
   XX=            -17.9309   YY=            -17.9309   ZZ=            -20.7550
   XY=              0.0000   XZ=              0.0000   YZ=              0.0000

 P ROCCSD(T)=(MaxCyc=150, Full)/Gen SCF=(maxcycle=400) Pseudo=Read Inte
 -0=-242.5498026\MP4SDQ=-242.4864257\CCSD=-242.4393258\CCSD(T)=-242.487
 Normal termination of Gaussian 16 at Tue Mar 27 11:50:59 2018.
