 Gaussian 16, Revision A.03,
 Gaussian 16:  ES64L-G16RevA.03 25-Dec-2016

 ----------------------------------------------------------------------
 #P ROCCSD(T)=(MaxCyc=150, Full)/Gen SCF=(maxcycle=400, vshift=200) Pse
 udo=Read Integral(NoXCTest) Pop=Regular MaxDisk=500GB Guess=Read IOp(5
 /15=2)
 ----------------------------------------------------------------------

 ---
 CuH
 ---
 Symbolic Z-matrix:
 Charge =  0 Multiplicity = 1

                         Standard orientation:
 ---------------------------------------------------------------------
 Center     Atomic      Atomic             Coordinates (Angstroms)
 Number     Number       Type             X           Y           Z
 ---------------------------------------------------------------------
      1         29           0        0.000000    0.000000    0.036667
      2          1           0        0.000000    0.000000   -1.063333
 ---------------------------------------------------------------------

 SCF Done:  E(ROHF) =  -195.815934101     A.U. after   13 cycles
 E2 =    -0.1157817595D+01 EUMP2 =    -0.19697375169582D+03
 CCSD(T)
 CCSD(T)= -0.19688593107D+03

 The electronic state is 1-SG.
 Alpha  occ. eigenvalues --   -5.27179  -3.45234  -3.42954  -3.42954  -0.59473
 Alpha  occ. eigenvalues --   -0.54747  -0.54747  -0.52799  -0.52799  -0.33011
 Alpha virt. eigenvalues --    0.00836   0.02678   0.02678   0.02925   0.05747
 Alpha virt. eigenvalues --    0.08894   0.08894   0.09170   0.13275   0.13275
 Alpha virt. eigenvalues --    0.13358   0.14063   0.14063   0.20142   0.23031

 Mulliken charges and spin densities:
               1          2
     1  Cu   0.250870   0.000000
     2  H   -0.250870   0.000000
 Sum of Mulliken charges =  -0.00000   0.00000

 Dipole moment (field-independent basis, Debye):
    X=              0.0000    Y=              0.0000    Z=              3.0865  Tot=              3.0865
 Quadrupole moment (field-independent basis, Debye-Ang):
   XX=            -14.2598   YY=            -14.2598   ZZ=            -14.4225
   XY=              0.0000   XZ=              0.0000   YZ=              0.0000

 P ROCCSD(T)=(MaxCyc=150, Full)/Gen SCF=(maxcycle=400, vshift=200) Pseu
 Normal termination of Gaussian 16 at Sat May  5 21:54:27 2018.
