 Gaussian 16, Revision A.03,
 Gaussian 16:  ES64L-G16RevA.03 25-Dec-2016

 ----------------------------------------------------------------------
 #P ROCCSD(T)=(MaxCyc=150, Full)/Gen SCF=(maxcycle=400, vshift=200) Pse
 udo=Read Integral(NoXCTest) Pop=Regular MaxDisk=500GB Guess=Read IOp(5
 /15=2)
 ----------------------------------------------------------------------

 ---
 CuH
 ---
 Symbolic Z-matrix:
 Charge =  0 Multiplicity = 1

                         Standard orientation:
 ---------------------------------------------------------------------
 Center     Atomic      Atomic             Coordinates (Angstroms)
 Number     Number       Type             X           Y           Z
 ---------------------------------------------------------------------
      1         29           0        0.000000    0.000000    0.036667
      2          1           0        0.000000    0.000000   -1.063333
 ---------------------------------------------------------------------

 SCF Done:  E(ROHF) =  -195.816217275     A.U. after   11 cycles
 E2 =    -0.1182954293D+01 EUMP2 =    -0.19699917156848D+03
 CCSD(T)
 CCSD(T)= -0.19690910239D+03

 The electronic state is 1-SG.
 Alpha  occ. eigenvalues --   -5.27179  -3.45233  -3.42953  -3.42953  -0.59472
 Alpha  occ. eigenvalues --   -0.54751  -0.54751  -0.52801  -0.52801  -0.33011
 Alpha virt. eigenvalues --    0.00714   0.02588   0.02588   0.02655   0.04870
 Alpha virt. eigenvalues --    0.07882   0.08525   0.08525   0.11840   0.11840
 Alpha virt. eigenvalues --    0.11979   0.12627   0.12627   0.14982   0.18832

 Mulliken charges and spin densities:
               1          2
     1  Cu   0.280781   0.000000
     2  H   -0.280781   0.000000
 Sum of Mulliken charges =  -0.00000   0.00000

 Dipole moment (field-independent basis, Debye):
    X=              0.0000    Y=              0.0000    Z=              3.0851  Tot=              3.0851
 Quadrupole moment (field-independent basis, Debye-Ang):
   XX=            -14.2584   YY=            -14.2584   ZZ=            -14.4248
   XY=              0.0000   XZ=              0.0000   YZ=              0.0000

 P ROCCSD(T)=(MaxCyc=150, Full)/Gen SCF=(maxcycle=400, vshift=200) Pseu
 Normal termination of Gaussian 16 at Sun May  6 00:35:46 2018.
