 Gaussian 16, Revision A.03,
 Gaussian 16:  ES64L-G16RevA.03 25-Dec-2016

 ----------------------------------------------------------------------
 #P ROCCSD(T)=(MaxCyc=150, Full)/Gen SCF=(maxcycle=400, vshift=200) Pse
 udo=Read Integral(NoXCTest) Pop=Regular MaxDisk=500GB Guess=Read IOp(5
 /15=2)
 ----------------------------------------------------------------------

 ---
 CuH
 ---
 Symbolic Z-matrix:
 Charge =  0 Multiplicity = 1

                         Standard orientation:
 ---------------------------------------------------------------------
 Center     Atomic      Atomic             Coordinates (Angstroms)
 Number     Number       Type             X           Y           Z
 ---------------------------------------------------------------------
      1         29           0        0.000000    0.000000    0.036667
      2          1           0        0.000000    0.000000   -1.063333
 ---------------------------------------------------------------------

 SCF Done:  E(ROHF) =  -195.813569176     A.U. after   18 cycles
 E2 =    -0.1105895993D+01 EUMP2 =    -0.19691946516809D+03
 CCSD(T)
 CCSD(T)= -0.19683310330D+03

 The electronic state is 1-SG.
 Alpha  occ. eigenvalues --   -5.27187  -3.45254  -3.42970  -3.42970  -0.59472
 Alpha  occ. eigenvalues --   -0.54743  -0.54743  -0.52793  -0.52793  -0.33010
 Alpha virt. eigenvalues --    0.00884   0.02957   0.02957   0.03220   0.06209
 Alpha virt. eigenvalues --    0.10081   0.10192   0.10192   0.17291   0.19106
 Alpha virt. eigenvalues --    0.19106   0.20608   0.20608   0.22319   0.26054

 Mulliken charges and spin densities:
               1          2
     1  Cu   0.285553   0.000000
     2  H   -0.285553   0.000000
 Sum of Mulliken charges =   0.00000   0.00000

 Dipole moment (field-independent basis, Debye):
    X=              0.0000    Y=              0.0000    Z=              3.0940  Tot=              3.0940
 Quadrupole moment (field-independent basis, Debye-Ang):
   XX=            -14.2691   YY=            -14.2691   ZZ=            -14.4116
   XY=              0.0000   XZ=              0.0000   YZ=              0.0000

 P ROCCSD(T)=(MaxCyc=150, Full)/Gen SCF=(maxcycle=400, vshift=200) Pseu
 Normal termination of Gaussian 16 at Sat May  5 21:02:00 2018.
