 Gaussian 16, Revision A.03,
 Gaussian 16:  ES64L-G16RevA.03 25-Dec-2016

 ----------------------------------------------------------------------
 #P ROCCSD(T)=(maxcyc=150, Full, SaveAmplitudes, ReadAmplitudes)/Gen 5d
  7f SCF=(maxcycles=300) Integral(NoXCTest) MaxDisk=500GB Pop=Regular P
 seudo=Read Guess=Read
 ----------------------------------------------------------------------

 ---
 ScO
 ---
 Symbolic Z-matrix:
 Charge =  0 Multiplicity = 2

                         Standard orientation:
 ---------------------------------------------------------------------
 Center     Atomic      Atomic             Coordinates (Angstroms)
 Number     Number       Type             X           Y           Z
 ---------------------------------------------------------------------
      1         21           0        0.000000    0.000000    0.524138
      2          8           0        0.000000    0.000000   -1.375862
 ---------------------------------------------------------------------

 SCF Done:  E(ROHF) =  -61.9267423370     A.U. after   17 cycles
 E2 =    -0.7191344938D+00 EUMP2 =    -0.62645876830798D+02
 CCSD(T)
 CCSD(T)= -0.62675989609D+02

 The electronic state is 2-SG.
 Alpha  occ. eigenvalues --   -2.71680  -1.68745  -1.68686  -1.68686  -1.10951
 Alpha  occ. eigenvalues --   -0.40271  -0.36491  -0.36491  -0.27452
 Alpha virt. eigenvalues --   -0.00878  -0.00878   0.00809   0.01809   0.02573
 Alpha virt. eigenvalues --    0.02573   0.02606   0.02606   0.03260   0.03260
 Alpha virt. eigenvalues --    0.03440   0.03911   0.05293   0.05293   0.08866

 Mulliken charges and spin densities:
               1          2
     1  Sc   1.225046   0.983358
     2  O   -1.225046   0.016642
 Sum of Mulliken charges =  -0.00000   1.00000

 Dipole moment (field-independent basis, Debye):
    X=              0.0000    Y=              0.0000    Z=              6.6297  Tot=              6.6297
 Quadrupole moment (field-independent basis, Debye-Ang):
   XX=            -21.9742   YY=            -21.9742   ZZ=            -34.1103
   XY=              0.0000   XZ=              0.0000   YZ=              0.0000

 \\#P ROCCSD(T)=(maxcyc=150, Full, SaveAmplitudes, ReadAmplitudes)/Gen
 267423\PMP2-0=-62.6458768\CCSD=-62.6267162\CCSD(T)=-62.6759896\RMSD=2.
 Normal termination of Gaussian 16 at Mon Mar  5 19:42:16 2018.
