 Gaussian 16, Revision A.03,
 Gaussian 16:  ES64L-G16RevA.03 25-Dec-2016

 ----------------------------------------------------------------------
 #P ROCCSD(T)=(maxcyc=150, Full, SaveAmplitudes, ReadAmplitudes)/Gen 5d
  7f SCF=(maxcycles=300) Integral(NoXCTest) MaxDisk=500GB Pop=Regular P
 seudo=Read Guess=Read IOp(5/15=2)
 ----------------------------------------------------------------------

 ---
 MnH
 ---
 Symbolic Z-matrix:
 Charge =  0 Multiplicity = 7

                         Standard orientation:
 ---------------------------------------------------------------------
 Center     Atomic      Atomic             Coordinates (Angstroms)
 Number     Number       Type             X           Y           Z
 ---------------------------------------------------------------------
      1         25           0        0.000000    0.000000    0.050000
      2          1           0        0.000000    0.000000   -1.250000
 ---------------------------------------------------------------------

 SCF Done:  E(ROHF) =  -104.002484450     A.U. after   26 cycles
 E2 =    -0.5857569896D+00 EUMP2 =    -0.10458824143941D+03
 CCSD(T)
 CCSD(T)= -0.10460886566D+03

 The electronic state is 7-SG.
 Alpha  occ. eigenvalues --   -4.23571  -2.79210  -2.78738  -2.78738  -0.66643
 Alpha  occ. eigenvalues --   -0.63574  -0.63574  -0.63365  -0.63365  -0.41683
 Alpha  occ. eigenvalues --   -0.24304
 Alpha virt. eigenvalues --    0.01372   0.01372   0.02148   0.03278   0.05847
 Alpha virt. eigenvalues --    0.05847   0.08518   0.08518   0.08602   0.08951
 Alpha virt. eigenvalues --    0.08951   0.09066   0.14195   0.21583   0.22743

 Mulliken charges and spin densities:
               1          2
     1  Mn   0.461057   5.942252
     2  H   -0.461057   0.057748
 Sum of Mulliken charges =  -0.00000   6.00000

 Dipole moment (field-independent basis, Debye):
    X=              0.0000    Y=              0.0000    Z=             -0.0315  Tot=              0.0315
 Quadrupole moment (field-independent basis, Debye-Ang):
   XX=            -15.9883   YY=            -15.9883   ZZ=            -25.3777
   XY=              0.0000   XZ=              0.0000   YZ=              0.0000

 \\#P ROCCSD(T)=(maxcyc=150, Full, SaveAmplitudes, ReadAmplitudes)/Gen
 59125\CCSD=-104.5923403\CCSD(T)=-104.6088657\RMSD=6.865e-09\PG=C*V [C*
 Normal termination of Gaussian 16 at Mon Feb 26 01:03:06 2018.
