 Gaussian 16, Revision A.03,
 Gaussian 16:  ES64L-G16RevA.03 25-Dec-2016

 ----------------------------------------------------------------------
 #P ROCCSD(T)=(maxcyc=150, Full)/Gen 5d 7f SCF=(maxcycles=300) Integral
 (NoXCTest) MaxDisk=500GB Pop=Regular Pseudo=Read IOp(5/15=2) Guess=Rea
 d
 ----------------------------------------------------------------------

 ---
 ScH
 ---
 Symbolic Z-matrix:
 Charge =  0 Multiplicity = 1

                         Standard orientation:
 ---------------------------------------------------------------------
 Center     Atomic      Atomic             Coordinates (Angstroms)
 Number     Number       Type             X           Y           Z
 ---------------------------------------------------------------------
      1         21           0        0.000000    0.000000    0.081818
      2          1           0        0.000000    0.000000   -1.718182
 ---------------------------------------------------------------------

 SCF Done:  E(ROHF) =  -46.7972483150     A.U. after   10 cycles
 E2 =    -0.4209918814D+00 EUMP2 =    -0.47218240196376D+02
 CCSD(T)
 CCSD(T)= -0.47261707902D+02

 The electronic state is 1-SG.
 Alpha  occ. eigenvalues --   -2.73155  -1.66577  -1.66577  -1.66546  -0.40485
 Alpha  occ. eigenvalues --   -0.23364
 Alpha virt. eigenvalues --    0.01124   0.01124   0.01481   0.01955   0.02848
 Alpha virt. eigenvalues --    0.02848   0.02927   0.02927   0.02954   0.04094
 Alpha virt. eigenvalues --    0.04094   0.04244   0.07290   0.07290   0.07824

 Mulliken charges and spin densities:
               1          2
     1  Sc   0.258657   0.000000
     2  H   -0.258657   0.000000
 Sum of Mulliken charges =   0.00000   0.00000

 Dipole moment (field-independent basis, Debye):
    X=              0.0000    Y=              0.0000    Z=              1.4956  Tot=              1.4956
 Quadrupole moment (field-independent basis, Debye-Ang):
   XX=            -22.8869   YY=            -22.8869   ZZ=            -26.7139
   XY=              0.0000   XZ=              0.0000   YZ=              0.0000

 P ROCCSD(T)=(maxcyc=150, Full)/Gen 5d 7f SCF=(maxcycles=300) Integral(
 PMP2-0=-47.2182402\MP4SDQ=-47.2424196\CCSD=-47.2424351\CCSD(T)=-47.261
 Normal termination of Gaussian 16 at Wed Feb 14 05:32:00 2018.
