 Gaussian 16, Revision A.03,
 Gaussian 16:  ES64L-G16RevA.03 25-Dec-2016

 ----------------------------------------------------------------------
 #P ROCCSD(T)=(maxcyc=150, Full, SaveAmplitudes, ReadAmplitudes)/Gen 5d
  7f SCF=(maxcycles=300) Integral(NoXCTest) MaxDisk=500GB Pop=Regular P
 seudo=Read Guess=Read IOp(5/15=2)
 ----------------------------------------------------------------------

 ---
 ScO
 ---
 Symbolic Z-matrix:
 Charge =  0 Multiplicity = 2

                         Standard orientation:
 ---------------------------------------------------------------------
 Center     Atomic      Atomic             Coordinates (Angstroms)
 Number     Number       Type             X           Y           Z
 ---------------------------------------------------------------------
      1         21           0        0.000000    0.000000    0.551724
      2          8           0        0.000000    0.000000   -1.448276
 ---------------------------------------------------------------------

 SCF Done:  E(ROHF) =  -61.8639835991     A.U. after   17 cycles
 E2 =    -0.6970995941D+00 EUMP2 =    -0.62561083193200D+02
 CCSD(T)
 CCSD(T)= -0.62594890890D+02

 The electronic state is 2-SG.
 Alpha  occ. eigenvalues --   -2.72998  -1.70974  -1.70974  -1.70442  -1.09857
 Alpha  occ. eigenvalues --   -0.38976  -0.34760  -0.34760  -0.28315
 Alpha virt. eigenvalues --   -0.01350  -0.01350   0.00561   0.01729   0.02814
 Alpha virt. eigenvalues --    0.02814   0.03104   0.03104   0.03700   0.04379
 Alpha virt. eigenvalues --    0.04379   0.04986   0.05099   0.05099   0.09686

 Mulliken charges and spin densities:
               1          2
     1  Sc   1.185726   0.978036
     2  O   -1.185726   0.021964
 Sum of Mulliken charges =  -0.00000   1.00000

 Dipole moment (field-independent basis, Debye):
    X=              0.0000    Y=              0.0000    Z=              7.4283  Tot=              7.4283
 Quadrupole moment (field-independent basis, Debye-Ang):
   XX=            -22.1071   YY=            -22.1071   ZZ=            -34.9765
   XY=              0.0000   XZ=              0.0000   YZ=              0.0000

 \\#P ROCCSD(T)=(maxcyc=150, Full, SaveAmplitudes, ReadAmplitudes)/Gen
 7\CCSD=-62.5432811\CCSD(T)=-62.5948909\RMSD=6.923e-09\PG=C*V [C*(O1Sc1
 Normal termination of Gaussian 16 at Wed Feb 21 08:22:48 2018.
