 Gaussian 16, Revision A.03,
 Gaussian 16:  ES64L-G16RevA.03 25-Dec-2016

 ----------------------------------------------------------------------
 #P ROCCSD(T)=(maxcyc=150, Full, SaveAmplitudes, ReadAmplitudes)/Gen 5d
  7f SCF=(maxcycles=300, VShift=400) Integral(NoXCTest) MaxDisk=500GB P
 op=Full Pseudo=Read Guess=Read IOp(5/15=2)
 ----------------------------------------------------------------------

 ---
 MnO
 ---
 Symbolic Z-matrix:
 Charge =  0 Multiplicity = 6

                         Standard orientation:
 ---------------------------------------------------------------------
 Center     Atomic      Atomic             Coordinates (Angstroms)
 Number     Number       Type             X           Y           Z
 ---------------------------------------------------------------------
      1         25           0        0.000000    0.000000    0.315152
      2          8           0        0.000000    0.000000   -0.984848
 ---------------------------------------------------------------------

 SCF Done:  E(ROHF) =  -119.205747625     A.U. after   46 cycles
 E2 =    -0.9417129055D+00 EUMP2 =    -0.12014746053038D+03
 CCSD(T)
 CCSD(T)= -0.12015305863D+03

 The electronic state is 6-SG.
 Alpha  occ. eigenvalues --   -4.14871  -2.73464  -2.73345  -2.73345  -1.26136
 Alpha  occ. eigenvalues --   -0.73550  -0.73550  -0.61907  -0.61907  -0.59838
 Alpha  occ. eigenvalues --   -0.40896  -0.40896  -0.30103
 Alpha virt. eigenvalues --    0.01886   0.02410   0.02410   0.03185   0.06429
 Alpha virt. eigenvalues --    0.07586   0.07586   0.08763   0.08763   0.09368
 Alpha virt. eigenvalues --    0.09368   0.10245   0.12099   0.16488   0.24625

 Mulliken charges and spin densities:
               1          2
     1  Mn   0.798886   4.762878
     2  O   -0.798886   0.237122
 Sum of Mulliken charges =  -0.00000   5.00000

 Dipole moment (field-independent basis, Debye):
    X=              0.0000    Y=              0.0000    Z=              2.8051  Tot=              2.8051
 Quadrupole moment (field-independent basis, Debye-Ang):
   XX=            -19.6889   YY=            -19.6889   ZZ=            -22.7625
   XY=              0.0000   XZ=              0.0000   YZ=              0.0000

 \\#P ROCCSD(T)=(maxcyc=150, Full, SaveAmplitudes, ReadAmplitudes)/Gen
 4SDQ=-120.1281445\CCSD=-120.1128826\CCSD(T)=-120.1530586\RMSD=9.340e-0
 Normal termination of Gaussian 16 at Sun Mar 18 19:00:54 2018.
