 Gaussian 16, Revision A.03,
 Gaussian 16:  ES64L-G16RevA.03 25-Dec-2016

 ----------------------------------------------------------------------
 #P ROCCSD(T)=(maxcyc=150, Full, SaveAmplitudes, ReadAmplitudes)/Gen 5d
  7f SCF=(maxcycles=300, VShift=400) Integral(NoXCTest) MaxDisk=500GB P
 op=Full Pseudo=Read Guess=Read
 ----------------------------------------------------------------------

 ---
 MnH
 ---
 Symbolic Z-matrix:
 Charge =  0 Multiplicity = 7

                         Standard orientation:
 ---------------------------------------------------------------------
 Center     Atomic      Atomic             Coordinates (Angstroms)
 Number     Number       Type             X           Y           Z
 ---------------------------------------------------------------------
      1         25           0        0.000000    0.000000    0.065385
      2          1           0        0.000000    0.000000   -1.634615
 ---------------------------------------------------------------------

 SCF Done:  E(ROHF) =  -103.799658170     A.U. after   30 cycles
 E2 =    -0.6015779325D+00 EUMP2 =    -0.10440123610277D+03
 CCSD(T)
 CCSD(T)= -0.10442244442D+03

 The electronic state is 7-SG.
 Alpha  occ. eigenvalues --   -4.14973  -2.77024  -2.77024  -2.76840  -0.64503
 Alpha  occ. eigenvalues --   -0.64503  -0.64296  -0.63813  -0.63813  -0.40873
 Alpha  occ. eigenvalues --   -0.26102
 Alpha virt. eigenvalues --    0.01194   0.01194   0.02149   0.02926   0.05062
 Alpha virt. eigenvalues --    0.05062   0.05649   0.05805   0.05805   0.06197
 Alpha virt. eigenvalues --    0.06197   0.09060   0.13342   0.14114   0.18071

 Mulliken charges and spin densities:
               1          2
     1  Mn   0.363595   5.949848
     2  H   -0.363595   0.050152
 Sum of Mulliken charges =  -0.00000   6.00000

 Dipole moment (field-independent basis, Debye):
    X=              0.0000    Y=              0.0000    Z=              1.3042  Tot=              1.3042
 Quadrupole moment (field-independent basis, Debye-Ang):
   XX=            -16.1859   YY=            -16.1859   ZZ=            -26.3828
   XY=              0.0000   XZ=              0.0000   YZ=              0.0000

 \\#P ROCCSD(T)=(maxcyc=150, Full, SaveAmplitudes, ReadAmplitudes)/Gen
 \PUHF=-103.7996582\PMP2-0=-104.4012361\CCSD=-104.4057904\CCSD(T)=-104.
 Normal termination of Gaussian 16 at Sat May  5 10:15:05 2018.
