 Gaussian 16, Revision A.03,
 Gaussian 16:  ES64L-G16RevA.03 25-Dec-2016

 ----------------------------------------------------------------------
 #P ROCCSD(T)=(MaxCyc=150, Full)/Gen SCF=(maxcycle=400, vshift=200) Int
 egral(DKHSO, NoXCTest) Pop=Regular MaxDisk=500GB Guess=Read IOp(5/15=2
 )
 ----------------------------------------------------------------------

 ---
 CuH
 ---
 Symbolic Z-matrix:
 Charge =  0 Multiplicity = 1

                         Standard orientation:
 ---------------------------------------------------------------------
 Center     Atomic      Atomic             Coordinates (Angstroms)
 Number     Number       Type             X           Y           Z
 ---------------------------------------------------------------------
      1         29           0        0.000000    0.000000    0.036667
      2          1           0        0.000000    0.000000   -1.063333
 ---------------------------------------------------------------------

 SCF Done:  E(ROHF) =  -1653.64047296     A.U. after   13 cycles
 E2 =    -0.1606497493D+01 EUMP2 =    -0.16552469704519D+04
 CCSD(T)
 CCSD(T)= -0.16551357515D+04

 The electronic state is 1-SG.
 Alpha  occ. eigenvalues -- -332.54161 -41.72366 -35.86408 -35.86016 -35.86016
 Alpha  occ. eigenvalues --   -5.21917  -3.43722  -3.41293  -3.41293  -0.59382
 Alpha  occ. eigenvalues --   -0.54655  -0.54655  -0.52683  -0.52683  -0.32987
 Alpha virt. eigenvalues --    0.00831   0.02676   0.02676   0.02925   0.05737
 Alpha virt. eigenvalues --    0.08882   0.08882   0.09170   0.13274   0.13274
 Alpha virt. eigenvalues --    0.13358   0.14063   0.14063   0.20123   0.23028

 Mulliken charges and spin densities:
               1          2
     1  Cu   0.232659   0.000000
     2  H   -0.232659   0.000000
 Sum of Mulliken charges =  -0.00000   0.00000

 Dipole moment (field-independent basis, Debye):
    X=              0.0000    Y=              0.0000    Z=              3.0878  Tot=              3.0878
 Quadrupole moment (field-independent basis, Debye-Ang):
   XX=            -14.4400   YY=            -14.4400   ZZ=            -14.5918
   XY=              0.0000   XZ=              0.0000   YZ=              0.0000

 P ROCCSD(T)=(MaxCyc=150, Full)/Gen SCF=(maxcycle=400, vshift=200) Inte
 Normal termination of Gaussian 16 at Wed Apr  4 20:54:21 2018.
