 Gaussian 16, Revision A.03,
 Gaussian 16:  ES64L-G16RevA.03 25-Dec-2016

 ----------------------------------------------------------------------
 #P ROCCSD(T)=(MaxCyc=150, Full)/Gen SCF=(maxcycle=400, vshift=200) Int
 egral(DKHSO, NoXCTest) Pop=Regular MaxDisk=500GB Guess=Read IOp(5/15=2
 )
 ----------------------------------------------------------------------

 ---
 CuH
 ---
 Symbolic Z-matrix:
 Charge =  0 Multiplicity = 1

                         Standard orientation:
 ---------------------------------------------------------------------
 Center     Atomic      Atomic             Coordinates (Angstroms)
 Number     Number       Type             X           Y           Z
 ---------------------------------------------------------------------
      1         29           0        0.000000    0.000000    0.036667
      2          1           0        0.000000    0.000000   -1.063333
 ---------------------------------------------------------------------

 SCF Done:  E(ROHF) =  -1653.64078537     A.U. after   12 cycles
 E2 =    -0.1647222599D+01 EUMP2 =    -0.16552880079715D+04
 CCSD(T)
 CCSD(T)= -0.16551748792D+04

 The electronic state is 1-SG.
 Alpha  occ. eigenvalues -- -332.54170 -41.72369 -35.86409 -35.86020 -35.86019
 Alpha  occ. eigenvalues --   -5.21919  -3.43723  -3.41294  -3.41294  -0.59381
 Alpha  occ. eigenvalues --   -0.54658  -0.54658  -0.52684  -0.52684  -0.32987
 Alpha virt. eigenvalues --    0.00710   0.02587   0.02587   0.02655   0.04862
 Alpha virt. eigenvalues --    0.07882   0.08514   0.08514   0.11840   0.11840
 Alpha virt. eigenvalues --    0.11978   0.12627   0.12627   0.14971   0.18828

 Mulliken charges and spin densities:
               1          2
     1  Cu   0.281663  -0.000000
     2  H   -0.281663  -0.000000
 Sum of Mulliken charges =  -0.00000  -0.00000

 Dipole moment (field-independent basis, Debye):
    X=              0.0000    Y=              0.0000    Z=              3.0864  Tot=              3.0864
 Quadrupole moment (field-independent basis, Debye-Ang):
   XX=            -14.4385   YY=            -14.4385   ZZ=            -14.5937
   XY=              0.0000   XZ=             -0.0000   YZ=             -0.0000

 P ROCCSD(T)=(MaxCyc=150, Full)/Gen SCF=(maxcycle=400, vshift=200) Inte
 Normal termination of Gaussian 16 at Thu Apr  5 19:16:24 2018.
