 Gaussian 16, Revision A.03,
 Gaussian 16:  ES64L-G16RevA.03 25-Dec-2016

 ----------------------------------------------------------------------
 #P ROCCSD(T)=(MaxCyc=150, Full)/Gen SCF=(maxcycle=400, vshift=200) Int
 egral(DKHSO, NoXCTest) Pop=Regular MaxDisk=500GB Guess=Read IOp(5/15=2
 )
 ----------------------------------------------------------------------

 ---
 CuH
 ---
 Symbolic Z-matrix:
 Charge =  0 Multiplicity = 1

                         Standard orientation:
 ---------------------------------------------------------------------
 Center     Atomic      Atomic             Coordinates (Angstroms)
 Number     Number       Type             X           Y           Z
 ---------------------------------------------------------------------
      1         29           0        0.000000    0.000000    0.036667
      2          1           0        0.000000    0.000000   -1.063333
 ---------------------------------------------------------------------

 SCF Done:  E(ROHF) =  -1653.63804429     A.U. after   17 cycles
 E2 =    -0.1537553438D+01 EUMP2 =    -0.16551755977305D+04
 CCSD(T)
 CCSD(T)= -0.16550655661D+04

 The electronic state is 1-SG.
 Alpha  occ. eigenvalues -- -332.54160 -41.72388 -35.86434 -35.86040 -35.86040
 Alpha  occ. eigenvalues --   -5.21929  -3.43738  -3.41303  -3.41303  -0.59383
 Alpha  occ. eigenvalues --   -0.54651  -0.54651  -0.52677  -0.52677  -0.32987
 Alpha virt. eigenvalues --    0.00880   0.02955   0.02955   0.03220   0.06198
 Alpha virt. eigenvalues --    0.10080   0.10178   0.10178   0.17287   0.19105
 Alpha virt. eigenvalues --    0.19105   0.20608   0.20608   0.22307   0.26044

 Mulliken charges and spin densities:
               1          2
     1  Cu   0.300792   0.000000
     2  H   -0.300792   0.000000
 Sum of Mulliken charges =   0.00000   0.00000

 Dipole moment (field-independent basis, Debye):
    X=              0.0000    Y=              0.0000    Z=              3.0954  Tot=              3.0954
 Quadrupole moment (field-independent basis, Debye-Ang):
   XX=            -14.4488   YY=            -14.4488   ZZ=            -14.5802
   XY=              0.0000   XZ=              0.0000   YZ=              0.0000

 P ROCCSD(T)=(MaxCyc=150, Full)/Gen SCF=(maxcycle=400, vshift=200) Inte
 Normal termination of Gaussian 16 at Wed Apr  4 19:19:50 2018.
