 Gaussian 16, Revision A.03,
 Gaussian 16:  ES64L-G16RevA.03 25-Dec-2016

 ----------------------------------------------------------------------
 #P ROCCSD(T)=(maxcyc=150, Full, SaveAmplitudes, ReadAmplitudes)/Gen 5d
  7f SCF=(maxcycles=300, VShift=400) Integral(NoXCTest) MaxDisk=500GB P
 op=Full Pseudo=Read Guess=Read IOp(5/15=2)
 ----------------------------------------------------------------------

 ---
 ScH
 ---
 Symbolic Z-matrix:
 Charge =  0 Multiplicity = 1

                         Standard orientation:
 ---------------------------------------------------------------------
 Center     Atomic      Atomic             Coordinates (Angstroms)
 Number     Number       Type             X           Y           Z
 ---------------------------------------------------------------------
      1         21           0        0.000000    0.000000    0.068182
      2          1           0        0.000000    0.000000   -1.431818
 ---------------------------------------------------------------------

 SCF Done:  E(ROHF) =  -46.6569360862     A.U. after   26 cycles
 E2 =    -0.4117837934D+00 EUMP2 =    -0.47068719879604D+02
 CCSD(T)
 CCSD(T)= -0.47111216604D+02

 The electronic state is 1-SG.
 Alpha  occ. eigenvalues --   -2.65082  -1.64703  -1.63726  -1.63726  -0.44193
 Alpha  occ. eigenvalues --   -0.22231
 Alpha virt. eigenvalues --    0.01277   0.01277   0.01639   0.02166   0.03509
 Alpha virt. eigenvalues --    0.03900   0.03900   0.03915   0.03915   0.04737
 Alpha virt. eigenvalues --    0.04737   0.04990   0.09333   0.09492   0.09492

 Mulliken charges and spin densities:
               1          2
     1  Sc   0.425684   0.000000
     2  H   -0.425684   0.000000
 Sum of Mulliken charges =  -0.00000   0.00000

 Dipole moment (field-independent basis, Debye):
    X=              0.0000    Y=              0.0000    Z=              0.7823  Tot=              0.7823
 Quadrupole moment (field-independent basis, Debye-Ang):
   XX=            -23.3714   YY=            -23.3714   ZZ=            -24.5968
   XY=              0.0000   XZ=              0.0000   YZ=              0.0000

 P ROCCSD(T)=(maxcyc=150, Full, SaveAmplitudes, ReadAmplitudes)/Gen 5d
 .0938925\CCSD=-47.0933522\CCSD(T)=-47.1112166\RMSD=6.646e-09\PG=C*V [C
 Normal termination of Gaussian 16 at Thu Apr 19 07:43:07 2018.
