 Gaussian 16, Revision A.03,
 Gaussian 16:  ES64L-G16RevA.03 25-Dec-2016

 ----------------------------------------------------------------------
 #P ROCCSD(T)=(maxcyc=150, Full)/Gen 5d 7f SCF=(maxcycles=300) Integral
 (NoXCTest) MaxDisk=500GB Pop=Regular Pseudo=Read
 ----------------------------------------------------------------------

 ---
 CrH
 ---
 Symbolic Z-matrix:
 Charge =  0 Multiplicity = 6

                         Standard orientation:
 ---------------------------------------------------------------------
 Center     Atomic      Atomic             Coordinates (Angstroms)
 Number     Number       Type             X           Y           Z
 ---------------------------------------------------------------------
      1         24           0        0.000000    0.000000    0.048000
      2          1           0        0.000000    0.000000   -1.152000
 ---------------------------------------------------------------------

 SCF Done:  E(ROHF) =  -86.5970522036     A.U. after   33 cycles
 E2 =    -0.5829259914D+00 EUMP2 =    -0.87179978195045D+02
 CCSD(T)
 CCSD(T)= -0.87201429514D+02

 The electronic state is 6-SG.
 Alpha  occ. eigenvalues --   -3.63238  -2.38406  -2.38406  -2.37345  -0.46369
 Alpha  occ. eigenvalues --   -0.45173  -0.45173  -0.42468  -0.42468  -0.25226
 Alpha virt. eigenvalues --    0.01768   0.01797   0.01797   0.02436   0.06165
 Alpha virt. eigenvalues --    0.06323   0.06323   0.07890   0.07890   0.08043
 Alpha virt. eigenvalues --    0.08126   0.08126   0.09938   0.19813   0.22353

 Mulliken charges and spin densities:
               1          2
     1  Cr   0.628194   5.021131
     2  H   -0.628194  -0.021131
 Sum of Mulliken charges =  -0.00000   5.00000

 Dipole moment (field-independent basis, Debye):
    X=              0.0000    Y=              0.0000    Z=              2.1416  Tot=              2.1416
 Quadrupole moment (field-independent basis, Debye-Ang):
   XX=            -16.6176   YY=            -16.6176   ZZ=            -18.6238
   XY=              0.0000   XZ=              0.0000   YZ=              0.0000

 \\#P ROCCSD(T)=(maxcyc=150, Full)/Gen 5d 7f SCF=(maxcycles=300) Integr
 P4SDQ=-87.1801251\CCSD=-87.1811402\CCSD(T)=-87.2014295\RMSD=7.418e-09\
 Normal termination of Gaussian 16 at Mon Feb 12 19:57:12 2018.
