 Gaussian 16, Revision A.03,
 Gaussian 16:  ES64L-G16RevA.03 25-Dec-2016

 ----------------------------------------------------------------------
 #P ROCCSD(T)=(maxcyc=100, Full)/Gen SCF=(maxcycle=400, symm) Pseudo=Re
 ad Integral(NoXCTest) Pop=Regular MaxDisk=500GB Guess=Permute IOp(5/15
 =2)
 ----------------------------------------------------------------------

 ---
 FeH
 ---
 Symbolic Z-matrix:
 Charge =  0 Multiplicity = 4

                         Standard orientation:
 ---------------------------------------------------------------------
 Center     Atomic      Atomic             Coordinates (Angstroms)
 Number     Number       Type             X           Y           Z
 ---------------------------------------------------------------------
      1         26           0        0.000000    0.000000    0.070370
      2          1           0        0.000000    0.000000   -1.829630
 ---------------------------------------------------------------------

 SCF Done:  E(ROHF) =  -123.493435450     A.U. after   29 cycles
 E2 =    -0.7798961952D+00 EUMP2 =    -0.12427333164492D+03
 CCSD(T)
 CCSD(T)= -0.12428046641D+03

 Unable to determine electronic state:  an orbital has unidentified symmetry.
 Alpha  occ. eigenvalues --   -4.36644  -2.79171  -2.78993  -2.78993  -0.48686
 Alpha  occ. eigenvalues --   -0.48686  -0.48554  -0.43569  -0.42589  -0.31423
 Alpha virt. eigenvalues --   -0.01088   0.02084   0.02084   0.03162   0.03420
 Alpha virt. eigenvalues --    0.06204   0.06676   0.06691   0.06872   0.06872
 Alpha virt. eigenvalues --    0.07655   0.07655   0.10315   0.15326   0.17574

 Mulliken charges and spin densities:
               1          2
     1  Fe   0.366047   2.999524
     2  H   -0.366047   0.000476
 Sum of Mulliken charges =  -0.00000   3.00000

 Dipole moment (field-independent basis, Debye):
    X=              0.0000    Y=              0.0000    Z=              5.2599  Tot=              5.2599
 Quadrupole moment (field-independent basis, Debye-Ang):
   XX=            -15.2611   YY=            -15.2611   ZZ=            -19.9380
   XY=              0.0000   XZ=              0.0000   YZ=              0.0000

 \\#P ROCCSD(T)=(maxcyc=100, Full)/Gen SCF=(maxcycle=400, symm) Pseudo=
 253588\CCSD(T)=-124.2804664\RMSD=6.238e-09\PG=C*V [C*(H1Fe1)]\\@
 Normal termination of Gaussian 16 at Mon Feb 19 14:02:08 2018.
