 Gaussian 16, Revision A.03,
 Gaussian 16:  ES64L-G16RevA.03 25-Dec-2016

 ----------------------------------------------------------------------
 #P ROCCSD(T)=(maxcyc=100, Full)/Gen SCF=(maxcycle=400, symm) Pseudo=Re
 ad Integral(NoXCTest) Pop=Regular MaxDisk=500GB Guess=Permute IOp(5/15
 =2)
 ----------------------------------------------------------------------

 ---
 FeH
 ---
 Symbolic Z-matrix:
 Charge =  0 Multiplicity = 4

                         Standard orientation:
 ---------------------------------------------------------------------
 Center     Atomic      Atomic             Coordinates (Angstroms)
 Number     Number       Type             X           Y           Z
 ---------------------------------------------------------------------
      1         26           0        0.000000    0.000000    0.070370
      2          1           0        0.000000    0.000000   -1.829630
 ---------------------------------------------------------------------

 SCF Done:  E(ROHF) =  -123.497659005     A.U. after   27 cycles
 E2 =    -0.7443893099D+00 EUMP2 =    -0.12424204831517D+03
 CCSD(T)
 CCSD(T)= -0.12425112425D+03

 Unable to determine electronic state:  an orbital has unidentified symmetry.
 Alpha  occ. eigenvalues --   -4.36807  -2.79139  -2.78959  -2.78959  -0.48680
 Alpha  occ. eigenvalues --   -0.48680  -0.48547  -0.43560  -0.42573  -0.31424
 Alpha virt. eigenvalues --   -0.01080   0.02325   0.02325   0.03446   0.03696
 Alpha virt. eigenvalues --    0.08347   0.08347   0.09405   0.10038   0.10080
 Alpha virt. eigenvalues --    0.10354   0.10354   0.11154   0.16885   0.22255

 Mulliken charges and spin densities:
               1          2
     1  Fe   0.427561   2.999071
     2  H   -0.427561   0.000929
 Sum of Mulliken charges =  -0.00000   3.00000

 Dipole moment (field-independent basis, Debye):
    X=              0.0000    Y=              0.0000    Z=              5.2623  Tot=              5.2623
 Quadrupole moment (field-independent basis, Debye-Ang):
   XX=            -15.2755   YY=            -15.2755   ZZ=            -19.9197
   XY=              0.0000   XZ=              0.0000   YZ=              0.0000

 \\#P ROCCSD(T)=(maxcyc=100, Full)/Gen SCF=(maxcycle=400, symm) Pseudo=
 66122\CCSD(T)=-124.2511242\RMSD=7.993e-09\PG=C*V [C*(H1Fe1)]\\@
 Normal termination of Gaussian 16 at Mon Feb 12 20:23:44 2018.
