 Gaussian 16, Revision A.03,
 Gaussian 16:  ES64L-G16RevA.03 25-Dec-2016

 ----------------------------------------------------------------------
 #P ROCCSD(T)=(maxcyc=100, Full)/Gen SCF=(maxcycle=400, symm) Pseudo=Re
 ad Integral(NoXCTest) Pop=Regular MaxDisk=500GB Guess=Permute IOp(5/15
 =2)
 ----------------------------------------------------------------------

 ---
 FeH
 ---
 Symbolic Z-matrix:
 Charge =  0 Multiplicity = 4

                         Standard orientation:
 ---------------------------------------------------------------------
 Center     Atomic      Atomic             Coordinates (Angstroms)
 Number     Number       Type             X           Y           Z
 ---------------------------------------------------------------------
      1         26           0        0.000000    0.000000    0.070370
      2          1           0        0.000000    0.000000   -1.829630
 ---------------------------------------------------------------------

 SCF Done:  E(ROHF) =  -123.498986447     A.U. after   28 cycles
 E2 =    -0.7939999690D+00 EUMP2 =    -0.12429298641652D+03
 CCSD(T)
 CCSD(T)= -0.12429813180D+03

 Unable to determine electronic state:  an orbital has unidentified symmetry.
 Alpha  occ. eigenvalues --   -4.36763  -2.79129  -2.78952  -2.78952  -0.48688
 Alpha  occ. eigenvalues --   -0.48688  -0.48556  -0.43575  -0.42596  -0.31425
 Alpha virt. eigenvalues --   -0.01102   0.02019   0.02019   0.02745   0.03010
 Alpha virt. eigenvalues --    0.05736   0.06118   0.06130   0.06372   0.06372
 Alpha virt. eigenvalues --    0.07287   0.07287   0.08977   0.12534   0.15525

 Mulliken charges and spin densities:
               1          2
     1  Fe   0.321513   2.997496
     2  H   -0.321513   0.002504
 Sum of Mulliken charges =  -0.00000   3.00000

 Dipole moment (field-independent basis, Debye):
    X=              0.0000    Y=              0.0000    Z=              5.2583  Tot=              5.2583
 Quadrupole moment (field-independent basis, Debye-Ang):
   XX=            -15.2583   YY=            -15.2583   ZZ=            -19.9375
   XY=              0.0000   XZ=              0.0000   YZ=              0.0000

 \\#P ROCCSD(T)=(maxcyc=100, Full)/Gen SCF=(maxcycle=400, symm) Pseudo=
 2704414\CCSD(T)=-124.2981318\RMSD=9.164e-09\PG=C*V [C*(H1Fe1)]\\@
 Normal termination of Gaussian 16 at Mon Feb 12 22:11:57 2018.
