 Gaussian 16, Revision A.03,
 Gaussian 16:  ES64L-G16RevA.03 25-Dec-2016

 ----------------------------------------------------------------------
 #P ROCCSD(T)=(maxcyc=150, Full, SaveAmplitudes, ReadAmplitudes)/Gen 5d
  7f SCF=(maxcycles=300) Integral(NoXCTest) MaxDisk=500GB Pop=Regular P
 seudo=Read Guess=Read IOp(5/15=2)
 ----------------------------------------------------------------------

 ---
 MnH
 ---
 Symbolic Z-matrix:
 Charge =  0 Multiplicity = 7

                         Standard orientation:
 ---------------------------------------------------------------------
 Center     Atomic      Atomic             Coordinates (Angstroms)
 Number     Number       Type             X           Y           Z
 ---------------------------------------------------------------------
      1         25           0        0.000000    0.000000    0.057692
      2          1           0        0.000000    0.000000   -1.442308
 ---------------------------------------------------------------------

 SCF Done:  E(ROHF) =  -104.226076890     A.U. after   26 cycles
 E2 =    -0.5799549982D+00 EUMP2 =    -0.10480603188841D+03
 CCSD(T)
 CCSD(T)= -0.10482746601D+03

 The electronic state is 7-SG.
 Alpha  occ. eigenvalues --   -4.17085  -2.75975  -2.75949  -2.75949  -0.65355
 Alpha  occ. eigenvalues --   -0.64545  -0.64545  -0.63994  -0.63994  -0.41950
 Alpha  occ. eigenvalues --   -0.25239
 Alpha virt. eigenvalues --    0.01375   0.01375   0.02252   0.03192   0.05869
 Alpha virt. eigenvalues --    0.05869   0.08455   0.08505   0.08505   0.08962
 Alpha virt. eigenvalues --    0.08962   0.09396   0.14102   0.20655   0.22870

 Mulliken charges and spin densities:
               1          2
     1  Mn   0.438980   5.954405
     2  H   -0.438980   0.045595
 Sum of Mulliken charges =  -0.00000   6.00000

 Dipole moment (field-independent basis, Debye):
    X=              0.0000    Y=              0.0000    Z=              0.6331  Tot=              0.6331
 Quadrupole moment (field-independent basis, Debye-Ang):
   XX=            -15.9643   YY=            -15.9643   ZZ=            -25.5863
   XY=              0.0000   XZ=              0.0000   YZ=              0.0000

 \\#P ROCCSD(T)=(maxcyc=150, Full, SaveAmplitudes, ReadAmplitudes)/Gen
 8107551\CCSD=-104.8114709\CCSD(T)=-104.827466\RMSD=8.758e-09\PG=C*V [C
 Normal termination of Gaussian 16 at Mon Feb 26 06:06:07 2018.
