 Gaussian 16, Revision A.03,
 Gaussian 16:  ES64L-G16RevA.03 25-Dec-2016

 ----------------------------------------------------------------------
 #P ROCCSD(T)=(maxcyc=150, Full)/Gen 5d 7f SCF=(maxcycles=300) Integral
 (NoXCTest) MaxDisk=500GB Pop=Regular Pseudo=Read Guess=Read
 ----------------------------------------------------------------------

 ---
 ScH
 ---
 Symbolic Z-matrix:
 Charge =  0 Multiplicity = 1

                         Standard orientation:
 ---------------------------------------------------------------------
 Center     Atomic      Atomic             Coordinates (Angstroms)
 Number     Number       Type             X           Y           Z
 ---------------------------------------------------------------------
      1         21           0        0.000000    0.000000    0.063636
      2          1           0        0.000000    0.000000   -1.336364
 ---------------------------------------------------------------------

 SCF Done:  E(ROHF) =  -46.6230048891     A.U. after    9 cycles
 E2 =    -0.4377616749D+00 EUMP2 =    -0.47060766563980D+02
 CCSD(T)
 CCSD(T)= -0.47098371824D+02

 The electronic state is 1-SG.
 Alpha  occ. eigenvalues --   -2.64096  -1.63695  -1.61939  -1.61939  -0.45272
 Alpha  occ. eigenvalues --   -0.21943
 Alpha virt. eigenvalues --    0.01259   0.01259   0.01448   0.01673   0.02622
 Alpha virt. eigenvalues --    0.02622   0.02628   0.02628   0.02645   0.04102
 Alpha virt. eigenvalues --    0.04293   0.04293   0.06980   0.07403   0.07403

 Mulliken charges and spin densities:
               1          2
     1  Sc   0.350929   0.000000
     2  H   -0.350929   0.000000
 Sum of Mulliken charges =  -0.00000   0.00000

 Dipole moment (field-independent basis, Debye):
    X=              0.0000    Y=              0.0000    Z=              0.6858  Tot=              0.6858
 Quadrupole moment (field-independent basis, Debye-Ang):
   XX=            -23.4669   YY=            -23.4669   ZZ=            -23.8256
   XY=              0.0000   XZ=              0.0000   YZ=              0.0000

 P ROCCSD(T)=(maxcyc=150, Full)/Gen 5d 7f SCF=(maxcycles=300) Integral(
 607666\MP4SDQ=-47.079652\CCSD=-47.0792059\CCSD(T)=-47.0983718\RMSD=1.4
 Normal termination of Gaussian 16 at Mon Feb 12 23:16:28 2018.
