 Gaussian 16, Revision A.03,
 Gaussian 16:  ES64L-G16RevA.03 25-Dec-2016

 ----------------------------------------------------------------------
 #P ROCCSD(T)=(MaxCyc=150, Full)/Gen SCF=(maxcycle=400, vshift=200) Pse
 udo=Read Integral(NoXCTest) Pop=Regular MaxDisk=500GB
 ----------------------------------------------------------------------

 ---
 FeO
 ---
 Symbolic Z-matrix:
 Charge =  0 Multiplicity = 5

                         Standard orientation:
 ---------------------------------------------------------------------
 Center     Atomic      Atomic             Coordinates (Angstroms)
 Number     Number       Type             X           Y           Z
 ---------------------------------------------------------------------
      1         26           0        0.000000    0.000000    0.352941
      2          8           0        0.000000    0.000000   -1.147059
 ---------------------------------------------------------------------

 SCF Done:  E(ROHF) =  -138.287078032     A.U. after   39 cycles
 E2 =    -0.1017273433D+01 EUMP2 =    -0.13930435146522D+03
 CCSD(T)
 CCSD(T)= -0.13931973880D+03

 Unable to determine electronic state:  partially filled degenerate orbitals.
 Alpha  occ. eigenvalues --   -4.41950  -2.99009  -2.92168  -2.92168  -1.17865
 Alpha  occ. eigenvalues --   -0.68188  -0.68188  -0.62603  -0.61077  -0.57994
 Alpha  occ. eigenvalues --   -0.36666  -0.36666  -0.35040
 Alpha virt. eigenvalues --   -0.03024   0.02118   0.02118   0.02620   0.03969
 Alpha virt. eigenvalues --    0.07644   0.07644   0.09063   0.09755   0.09785
 Alpha virt. eigenvalues --    0.10774   0.10774   0.14386   0.15057   0.25608

 Mulliken charges and spin densities:
               1          2
     1  Fe   1.097244   3.782571
     2  O   -1.097244   0.217429
 Sum of Mulliken charges =  -0.00000   4.00000

 Dipole moment (field-independent basis, Debye):
    X=              0.0000    Y=              0.0000    Z=              7.6096  Tot=              7.6096
 Quadrupole moment (field-independent basis, Debye-Ang):
   XX=            -18.3280   YY=            -18.3280   ZZ=            -21.4465
   XY=              0.0000   XZ=              0.0000   YZ=              0.0000

 \\#P ROCCSD(T)=(MaxCyc=150, Full)/Gen SCF=(maxcycle=400, vshift=200) P
 DQ=-139.2908146\CCSD=-139.2731447\CCSD(T)=-139.3197388\RMSD=9.999e-09\
 Normal termination of Gaussian 16 at Wed Apr 18 05:37:14 2018.
