 Gaussian 16, Revision A.03,
 Gaussian 16:  ES64L-G16RevA.03 25-Dec-2016

 ----------------------------------------------------------------------
 #P ROCCSD(T)=(MaxCyc=150, Full)/Gen SCF=(maxcycle=400, vshift=200) Pse
 udo=Read Integral(NoXCTest) Pop=Regular MaxDisk=500GB
 ----------------------------------------------------------------------

 ---
 FeO
 ---
 Symbolic Z-matrix:
 Charge =  0 Multiplicity = 5

                         Standard orientation:
 ---------------------------------------------------------------------
 Center     Atomic      Atomic             Coordinates (Angstroms)
 Number     Number       Type             X           Y           Z
 ---------------------------------------------------------------------
      1         26           0        0.000000    0.000000    0.352941
      2          8           0        0.000000    0.000000   -1.147059
 ---------------------------------------------------------------------

 SCF Done:  E(ROHF) =  -138.289985948     A.U. after   35 cycles
 E2 =    -0.1065177118D+01 EUMP2 =    -0.13935516306585D+03
 CCSD(T)
 CCSD(T)= -0.13936797329D+03

 Unable to determine electronic state:  partially filled degenerate orbitals.
 Alpha  occ. eigenvalues --   -4.41938  -2.98982  -2.92152  -2.92152  -1.17818
 Alpha  occ. eigenvalues --   -0.68186  -0.68186  -0.62597  -0.61055  -0.57992
 Alpha  occ. eigenvalues --   -0.36671  -0.36671  -0.35025
 Alpha virt. eigenvalues --   -0.03019   0.01823   0.01823   0.02338   0.03561
 Alpha virt. eigenvalues --    0.06408   0.06408   0.06541   0.06552   0.06633
 Alpha virt. eigenvalues --    0.08139   0.08139   0.12351   0.14034   0.19468

 Mulliken charges and spin densities:
               1          2
     1  Fe   1.131944   3.790219
     2  O   -1.131944   0.209781
 Sum of Mulliken charges =  -0.00000   4.00000

 Dipole moment (field-independent basis, Debye):
    X=              0.0000    Y=              0.0000    Z=              7.5986  Tot=              7.5986
 Quadrupole moment (field-independent basis, Debye-Ang):
   XX=            -18.3282   YY=            -18.3282   ZZ=            -21.4256
   XY=              0.0000   XZ=              0.0000   YZ=              0.0000

 \\#P ROCCSD(T)=(MaxCyc=150, Full)/Gen SCF=(maxcycle=400, vshift=200) P
 4SDQ=-139.3363335\CCSD=-139.319092\CCSD(T)=-139.3679733\RMSD=6.072e-09
 Normal termination of Gaussian 16 at Wed Apr 18 07:40:38 2018.
