 Gaussian 16, Revision A.03,
 Gaussian 16:  ES64L-G16RevA.03 25-Dec-2016

 ----------------------------------------------------------------------
 #P ROCCSD(T)=(maxcyc=150, Full, SaveAmplitudes, ReadAmplitudes)/Gen 5d
  7f SCF=(maxcycles=300, VShift=400) Integral(NoXCTest) MaxDisk=500GB P
 op=Full Pseudo=Read Guess=Read IOp(5/15=2)
 ----------------------------------------------------------------------

 ---
 MnO
 ---
 Symbolic Z-matrix:
 Charge =  0 Multiplicity = 6

                         Standard orientation:
 ---------------------------------------------------------------------
 Center     Atomic      Atomic             Coordinates (Angstroms)
 Number     Number       Type             X           Y           Z
 ---------------------------------------------------------------------
      1         25           0        0.000000    0.000000    0.339394
      2          8           0        0.000000    0.000000   -1.060606
 ---------------------------------------------------------------------

 SCF Done:  E(ROHF) =  -119.274162005     A.U. after   49 cycles
 E2 =    -0.9325906929D+00 EUMP2 =    -0.12020675269804D+03
 CCSD(T)
 CCSD(T)= -0.12021743336D+03

 The electronic state is 6-SG.
 Alpha  occ. eigenvalues --   -4.16281  -2.75106  -2.75106  -2.73084  -1.24042
 Alpha  occ. eigenvalues --   -0.70909  -0.70909  -0.63809  -0.63809  -0.55694
 Alpha  occ. eigenvalues --   -0.41124  -0.41124  -0.31786
 Alpha virt. eigenvalues --    0.01149   0.02180   0.02180   0.03359   0.05167
 Alpha virt. eigenvalues --    0.07117   0.07117   0.08703   0.08703   0.09382
 Alpha virt. eigenvalues --    0.09382   0.09456   0.12602   0.15529   0.23756

 Mulliken charges and spin densities:
               1          2
     1  Mn   0.923506   4.798296
     2  O   -0.923506   0.201704
 Sum of Mulliken charges =  -0.00000   5.00000

 Dipole moment (field-independent basis, Debye):
    X=              0.0000    Y=              0.0000    Z=              4.3212  Tot=              4.3212
 Quadrupole moment (field-independent basis, Debye-Ang):
   XX=            -19.5142   YY=            -19.5142   ZZ=            -23.0110
   XY=              0.0000   XZ=              0.0000   YZ=              0.0000

 \\#P ROCCSD(T)=(maxcyc=150, Full, SaveAmplitudes, ReadAmplitudes)/Gen
 DQ=-120.1936335\CCSD=-120.1758983\CCSD(T)=-120.2174334\RMSD=9.237e-09\
 Normal termination of Gaussian 16 at Sun Mar 18 19:01:39 2018.
