 Gaussian 16, Revision A.03,
 Gaussian 16:  ES64L-G16RevA.03 25-Dec-2016

 ----------------------------------------------------------------------
 #P ROCCSD(T)=(MaxCyc=150, Full)/Gen SCF=(maxcycle=400) Pseudo=Read Int
 egral(NoXCTest) Pop=Regular MaxDisk=500GB Guess=Read IOp(5/15=2)
 ----------------------------------------------------------------------

 ---
 CuH
 ---
 Symbolic Z-matrix:
 Charge =  0 Multiplicity = 1

                         Standard orientation:
 ---------------------------------------------------------------------
 Center     Atomic      Atomic             Coordinates (Angstroms)
 Number     Number       Type             X           Y           Z
 ---------------------------------------------------------------------
      1         29           0        0.000000    0.000000    0.036667
      2          1           0        0.000000    0.000000   -1.063333
 ---------------------------------------------------------------------

 SCF Done:  E(ROHF) =  -196.654984309     A.U. after   13 cycles
 E2 =    -0.1102975513D+01 EUMP2 =    -0.19775795982196D+03
 CCSD(T)
 CCSD(T)= -0.19767256238D+03

 The electronic state is 1-SG.
 Alpha  occ. eigenvalues --   -5.28275  -3.49618  -3.47367  -3.47367  -0.59310
 Alpha  occ. eigenvalues --   -0.54615  -0.54615  -0.52668  -0.52668  -0.33013
 Alpha virt. eigenvalues --    0.00868   0.02954   0.02954   0.03222   0.06182
 Alpha virt. eigenvalues --    0.10084   0.10173   0.10173   0.17287   0.19105
 Alpha virt. eigenvalues --    0.19105   0.20608   0.20608   0.22282   0.26043

 Mulliken charges and spin densities:
               1          2
     1  Cu   0.284836   0.000000
     2  H   -0.284836   0.000000
 Sum of Mulliken charges =  -0.00000   0.00000

 Dipole moment (field-independent basis, Debye):
    X=              0.0000    Y=              0.0000    Z=              3.1067  Tot=              3.1067
 Quadrupole moment (field-independent basis, Debye-Ang):
   XX=            -14.2105   YY=            -14.2105   ZZ=            -14.3563
   XY=              0.0000   XZ=              0.0000   YZ=              0.0000

 P ROCCSD(T)=(MaxCyc=150, Full)/Gen SCF=(maxcycle=400) Pseudo=Read Inte
 2-0=-197.7579598\MP4SDQ=-197.7092904\CCSD=-197.634221\CCSD(T)=-197.672
 Normal termination of Gaussian 16 at Wed Apr  4 22:59:53 2018.
