 Gaussian 16, Revision A.03,
 Gaussian 16:  ES64L-G16RevA.03 25-Dec-2016

 ----------------------------------------------------------------------
 #P ROCCSD(T)=(MaxCyc=150, Full)/Gen SCF=(maxcycle=400) Pseudo=Read Int
 egral(NoXCTest) Pop=Regular MaxDisk=500GB Guess=Read IOp(5/15=2)
 ----------------------------------------------------------------------

 ---
 CuH
 ---
 Symbolic Z-matrix:
 Charge =  0 Multiplicity = 1

                         Standard orientation:
 ---------------------------------------------------------------------
 Center     Atomic      Atomic             Coordinates (Angstroms)
 Number     Number       Type             X           Y           Z
 ---------------------------------------------------------------------
      1         29           0        0.000000    0.000000    0.036667
      2          1           0        0.000000    0.000000   -1.063333
 ---------------------------------------------------------------------

 SCF Done:  E(ROHF) =  -196.656570086     A.U. after    9 cycles
 E2 =    -0.1179733844D+01 EUMP2 =    -0.19783630393056D+03
 CCSD(T)
 CCSD(T)= -0.19774725513D+03

 The electronic state is 1-SG.
 Alpha  occ. eigenvalues --   -5.28278  -3.49608  -3.47362  -3.47362  -0.59308
 Alpha  occ. eigenvalues --   -0.54621  -0.54621  -0.52674  -0.52674  -0.33014
 Alpha virt. eigenvalues --    0.00700   0.02586   0.02586   0.02656   0.04848
 Alpha virt. eigenvalues --    0.07886   0.08511   0.08511   0.11840   0.11840
 Alpha virt. eigenvalues --    0.11976   0.12627   0.12627   0.14955   0.18827

 Mulliken charges and spin densities:
               1          2
     1  Cu   0.281321   0.000000
     2  H   -0.281321   0.000000
 Sum of Mulliken charges =   0.00000   0.00000

 Dipole moment (field-independent basis, Debye):
    X=              0.0000    Y=              0.0000    Z=              3.0974  Tot=              3.0974
 Quadrupole moment (field-independent basis, Debye-Ang):
   XX=            -14.2003   YY=            -14.2003   ZZ=            -14.3696
   XY=              0.0000   XZ=              0.0000   YZ=              0.0000

 P ROCCSD(T)=(MaxCyc=150, Full)/Gen SCF=(maxcycle=400) Pseudo=Read Inte
 2-0=-197.8363039\MP4SDQ=-197.7798017\CCSD=-197.7062028\CCSD(T)=-197.74
 Normal termination of Gaussian 16 at Thu Apr  5 02:30:15 2018.
