 Gaussian 16, Revision A.03,
 Gaussian 16:  ES64L-G16RevA.03 25-Dec-2016

 ----------------------------------------------------------------------
 #P ROCCSD(T)=(MaxCyc=150, Full)/Gen SCF=(maxcycle=400) Pseudo=Read Int
 egral(NoXCTest) Pop=Regular MaxDisk=500GB Guess=Read IOp(5/15=2)
 ----------------------------------------------------------------------

 ---
 CuH
 ---
 Symbolic Z-matrix:
 Charge =  0 Multiplicity = 1

                         Standard orientation:
 ---------------------------------------------------------------------
 Center     Atomic      Atomic             Coordinates (Angstroms)
 Number     Number       Type             X           Y           Z
 ---------------------------------------------------------------------
      1         29           0        0.000000    0.000000    0.036667
      2          1           0        0.000000    0.000000   -1.063333
 ---------------------------------------------------------------------

 SCF Done:  E(ROHF) =  -196.656460912     A.U. after   10 cycles
 E2 =    -0.1154719511D+01 EUMP2 =    -0.19781118042315D+03
 CCSD(T)
 CCSD(T)= -0.19772435606D+03

 The electronic state is 1-SG.
 Alpha  occ. eigenvalues --   -5.28276  -3.49607  -3.47361  -3.47361  -0.59309
 Alpha  occ. eigenvalues --   -0.54617  -0.54617  -0.52673  -0.52673  -0.33014
 Alpha virt. eigenvalues --    0.00821   0.02676   0.02676   0.02926   0.05722
 Alpha virt. eigenvalues --    0.08879   0.08879   0.09174   0.13274   0.13274
 Alpha virt. eigenvalues --    0.13353   0.14063   0.14063   0.20101   0.23029

 Mulliken charges and spin densities:
               1          2
     1  Cu   0.249003   0.000000
     2  H   -0.249003   0.000000
 Sum of Mulliken charges =  -0.00000   0.00000

 Dipole moment (field-independent basis, Debye):
    X=              0.0000    Y=              0.0000    Z=              3.0989  Tot=              3.0989
 Quadrupole moment (field-independent basis, Debye-Ang):
   XX=            -14.2016   YY=            -14.2016   ZZ=            -14.3676
   XY=              0.0000   XZ=              0.0000   YZ=              0.0000

 P ROCCSD(T)=(MaxCyc=150, Full)/Gen SCF=(maxcycle=400) Pseudo=Read Inte
 2-0=-197.8111804\MP4SDQ=-197.7581823\CCSD=-197.6840399\CCSD(T)=-197.72
 Normal termination of Gaussian 16 at Wed Apr  4 23:49:54 2018.
