 Gaussian 16, Revision A.03,
 Gaussian 16:  ES64L-G16RevA.03 25-Dec-2016

 ----------------------------------------------------------------------
 #P ROCCSD(T)=(MaxCyc=150, Full)/Gen SCF=(maxcycle=400) Integral(DKHSO,
  NoXCTest) Pop=Regular MaxDisk=500GB Guess=Read IOp(5/15=2)
 ----------------------------------------------------------------------

 ---
 CuO
 ---
 Symbolic Z-matrix:
 Charge =  0 Multiplicity = 2

                         Standard orientation:
 ---------------------------------------------------------------------
 Center     Atomic      Atomic             Coordinates (Angstroms)
 Number     Number       Type             X           Y           Z
 ---------------------------------------------------------------------
      1         29           0        0.000000    0.000000    0.410811
      2          8           0        0.000000    0.000000   -1.489189
 ---------------------------------------------------------------------

 SCF Done:  E(ROHF) =  -1728.04665890     A.U. after   17 cycles
 E2 =    -0.1750634490D+01 EUMP2 =    -0.17297972933863D+04
 CCSD(T)
 CCSD(T)= -0.17297097567D+04

 Unable to determine electronic state:  an orbital has unidentified symmetry.
 Alpha  occ. eigenvalues -- -332.52471 -41.69644 -35.83855 -35.83775 -35.83452
 Alpha  occ. eigenvalues --  -20.52203  -5.19369  -3.40173  -3.40115  -3.39978
 Alpha  occ. eigenvalues --   -1.19527  -0.55085  -0.53102  -0.52607  -0.52040
 Alpha  occ. eigenvalues --   -0.52039  -0.48364  -0.41242  -0.40733
 Alpha virt. eigenvalues --   -0.01753   0.02710   0.02862   0.03789   0.04573
 Alpha virt. eigenvalues --    0.10008   0.10284   0.13438   0.19222   0.19232
 Alpha virt. eigenvalues --    0.19422   0.20135   0.21556   0.22632   0.25938

 Mulliken charges and spin densities:
               1          2
     1  Cu   0.801972   0.010466
     2  O   -0.801972   0.989534
 Sum of Mulliken charges =  -0.00000   1.00000

 Dipole moment (field-independent basis, Debye):
    X=              0.0000    Y=              0.0000    Z=              6.3653  Tot=              6.3653
 Quadrupole moment (field-independent basis, Debye-Ang):
   XX=            -17.2763   YY=            -15.7000   ZZ=            -21.9452
   XY=              0.0000   XZ=              0.0000   YZ=              0.0000

 \\#P ROCCSD(T)=(MaxCyc=150, Full)/Gen SCF=(maxcycle=400) Integral(DKHS
 .7972934\MP4SDQ=-1729.7423858\CCSD=-1729.6639908\CCSD(T)=-1729.7097567
 Normal termination of Gaussian 16 at Sat Mar 24 00:12:39 2018.
