 Gaussian 16, Revision A.03,
 Gaussian 16:  ES64L-G16RevA.03 25-Dec-2016

 ----------------------------------------------------------------------
 #P ROCCSD(T)=(maxcyc=150, Window=(6,0), SaveAmplitudes, ReadAmplitudes
 )/Gen 5d 7f SCF=(maxcycles=300) Integral(NoXCTest, DKHSO) MaxDisk=500G
 B Pop=Regular Guess=Read
 ----------------------------------------------------------------------

 ---
 MnH
 ---
 Symbolic Z-matrix:
 Charge =  0 Multiplicity = 7

                         Standard orientation:
 ---------------------------------------------------------------------
 Center     Atomic      Atomic             Coordinates (Angstroms)
 Number     Number       Type             X           Y           Z
 ---------------------------------------------------------------------
      1         25           0        0.000000    0.000000    0.046154
      2          1           0        0.000000    0.000000   -1.153846
 ---------------------------------------------------------------------

 SCF Done:  E(ROHF) =  -1157.82786758     A.U. after   21 cycles
 E2 =    -0.6090059260D+00 EUMP2 =    -0.11584368735034D+04
 CCSD(T)
 CCSD(T)= -0.11584490082D+04

 The electronic state is 7-SG.
 Alpha  occ. eigenvalues -- -242.48999 -29.59667 -24.95057 -24.95057 -24.94919
 Alpha  occ. eigenvalues --   -4.08827  -2.74724  -2.73663  -2.73663  -0.67920
 Alpha  occ. eigenvalues --   -0.63379  -0.63379  -0.63307  -0.63307  -0.41045
 Alpha  occ. eigenvalues --   -0.23596
 Alpha virt. eigenvalues --    0.01301   0.01301   0.01893   0.03194   0.05133
 Alpha virt. eigenvalues --    0.05133   0.05739   0.05829   0.05829   0.06150
 Alpha virt. eigenvalues --    0.06150   0.08185   0.14014   0.15494   0.17798

 Mulliken charges and spin densities:
               1          2
     1  Mn   0.509670   5.882656
     2  H   -0.509670   0.117344
 Sum of Mulliken charges =  -0.00000   6.00000

 Dipole moment (field-independent basis, Debye):
    X=              0.0000    Y=              0.0000    Z=             -0.3699  Tot=              0.3699
 Quadrupole moment (field-independent basis, Debye-Ang):
   XX=            -16.2526   YY=            -16.2526   ZZ=            -25.6625
   XY=              0.0000   XZ=              0.0000   YZ=              0.0000

 1\1\GINC-C504-081\SP\ROCCSD(T)-RW\Gen\H1Mn1(7)\AANNABE\25-Feb-2018\0\\
 #P ROCCSD(T)=(maxcyc=150, Window=(6,0), SaveAmplitudes, ReadAmplitudes
 )/Gen 5d 7f SCF=(maxcycles=300) Integral(NoXCTest, DKHSO) MaxDisk=500G
 B Pop=Regular Guess=Read\\MnH\\0,7\Mn,0,0.,0.,0.\H,0,0.,0.,1.2\\Versio
 n=ES64L-G16RevA.03\State=7-SG\HF=-1157.8278676\MP2=-1158.4368735\PUHF=
 -1157.8278676\PMP2-0=-1158.4368735\CCSD=-1158.432014\CCSD(T)=-1158.449
 0082\RMSD=2.242e-09\PG=C*V [C*(H1Mn1)]\\@

 Normal termination of Gaussian 16 at Sun Feb 25 18:57:39 2018.
