 Gaussian 16, Revision A.03,
 Gaussian 16:  ES64L-G16RevA.03 25-Dec-2016

 ----------------------------------------------------------------------
 #P ROCCSD(T)=(MaxCyc=150, Full)/Gen SCF=(maxcycle=400) Integral(DKHSO,
  NoXCTest) Pop=Regular MaxDisk=500GB Guess=Read IOp(5/15=2)
 ----------------------------------------------------------------------

 ---
 NiO
 ---
 Symbolic Z-matrix:
 Charge =  0 Multiplicity = 3

                         Standard orientation:
 ---------------------------------------------------------------------
 Center     Atomic      Atomic             Coordinates (Angstroms)
 Number     Number       Type             X           Y           Z
 ---------------------------------------------------------------------
      1         28           0        0.000000    0.000000    0.400000
      2          8           0        0.000000    0.000000   -1.400000
 ---------------------------------------------------------------------

 SCF Done:  E(ROHF) =  -1593.90629920     A.U. after   22 cycles
 E2 =    -0.1623129006D+01 EUMP2 =    -0.15955294282042D+04
 CCSD(T)
 CCSD(T)= -0.15955422846D+04

 The electronic state is 3-SG.
 Alpha  occ. eigenvalues -- -308.83885 -38.70471 -33.18606 -33.15001 -33.15001
 Alpha  occ. eigenvalues --  -20.50417  -5.14082  -3.51326  -3.43422  -3.43422
 Alpha  occ. eigenvalues --   -1.13472  -0.81347  -0.81347  -0.75692  -0.72647
 Alpha  occ. eigenvalues --   -0.72647  -0.38844  -0.38844  -0.35672
 Alpha virt. eigenvalues --   -0.05587   0.02054   0.02054   0.02111   0.04266
 Alpha virt. eigenvalues --    0.07632   0.07632   0.10639   0.11989   0.11989
 Alpha virt. eigenvalues --    0.13125   0.13125   0.15055   0.16017   0.25995

 Mulliken charges and spin densities:
               1          2
     1  Ni   0.986426   1.954294
     2  O   -0.986426   0.045706
 Sum of Mulliken charges =  -0.00000   2.00000

 Dipole moment (field-independent basis, Debye):
    X=              0.0000    Y=              0.0000    Z=              7.9385  Tot=              7.9385
 Quadrupole moment (field-independent basis, Debye-Ang):
   XX=            -19.1195   YY=            -19.1195   ZZ=            -22.6112
   XY=              0.0000   XZ=              0.0000   YZ=              0.0000

 \\#P ROCCSD(T)=(MaxCyc=150, Full)/Gen SCF=(maxcycle=400) Integral(DKHS
 MP2-0=-1595.5294282\MP4SDQ=-1595.4798538\CCSD=-1595.4729182\CCSD(T)=-1
 Normal termination of Gaussian 16 at Fri Mar 16 08:05:57 2018.
