 Gaussian 16, Revision A.03,
 Gaussian 16:  ES64L-G16RevA.03 25-Dec-2016

 ----------------------------------------------------------------------
 #P ROCCSD(T)=(MaxCyc=150, Full)/Gen SCF=(maxcycle=400) Integral(DKHSO,
  NoXCTest) Pop=Regular MaxDisk=500GB Guess=Read IOp(5/15=2)
 ----------------------------------------------------------------------

 ---
 NiO
 ---
 Symbolic Z-matrix:
 Charge =  0 Multiplicity = 3

                         Standard orientation:
 ---------------------------------------------------------------------
 Center     Atomic      Atomic             Coordinates (Angstroms)
 Number     Number       Type             X           Y           Z
 ---------------------------------------------------------------------
      1         28           0        0.000000    0.000000    0.400000
      2          8           0        0.000000    0.000000   -1.400000
 ---------------------------------------------------------------------

 SCF Done:  E(ROHF) =  -1593.91267988     A.U. after   19 cycles
 E2 =    -0.1700537438D+01 EUMP2 =    -0.15956132173158D+04
 CCSD(T)
 CCSD(T)= -0.15956246583D+04

 The electronic state is 3-SG.
 Alpha  occ. eigenvalues -- -308.83871 -38.70441 -33.18570 -33.14970 -33.14970
 Alpha  occ. eigenvalues --  -20.50270  -5.14062  -3.51300  -3.43405  -3.43405
 Alpha  occ. eigenvalues --   -1.13411  -0.81345  -0.81345  -0.75687  -0.72649
 Alpha  occ. eigenvalues --   -0.72649  -0.38865  -0.38865  -0.35653
 Alpha virt. eigenvalues --   -0.05573   0.01726   0.01726   0.01857   0.03859
 Alpha virt. eigenvalues --    0.06619   0.06619   0.07632   0.07927   0.07927
 Alpha virt. eigenvalues --    0.08835   0.08835   0.12448   0.14902   0.21612

 Mulliken charges and spin densities:
               1          2
     1  Ni   0.935034   1.954343
     2  O   -0.935034   0.045657
 Sum of Mulliken charges =   0.00000   2.00000

 Dipole moment (field-independent basis, Debye):
    X=              0.0000    Y=              0.0000    Z=              7.9216  Tot=              7.9216
 Quadrupole moment (field-independent basis, Debye-Ang):
   XX=            -19.1088   YY=            -19.1088   ZZ=            -22.5976
   XY=              0.0000   XZ=              0.0000   YZ=              0.0000

 \\#P ROCCSD(T)=(MaxCyc=150, Full)/Gen SCF=(maxcycle=400) Integral(DKHS
 MP2-0=-1595.6132173\MP4SDQ=-1595.5577208\CCSD=-1595.5521576\CCSD(T)=-1
 Normal termination of Gaussian 16 at Fri Mar 16 10:11:41 2018.
