 Gaussian 16, Revision A.03,
 Gaussian 16:  ES64L-G16RevA.03 25-Dec-2016

 ----------------------------------------------------------------------
 #P ROCCSD(T)=(maxcyc=150, Full, SaveAmplitudes, ReadAmplitudes)/Gen 5d
  7f SCF=(maxcycles=300, VShift=400) Integral(NoXCTest) MaxDisk=500GB P
 op=Full Pseudo=Read Guess=Read IOp(5/15=2)
 ----------------------------------------------------------------------

 ---
 MnH
 ---
 Symbolic Z-matrix:
 Charge =  0 Multiplicity = 7

                         Standard orientation:
 ---------------------------------------------------------------------
 Center     Atomic      Atomic             Coordinates (Angstroms)
 Number     Number       Type             X           Y           Z
 ---------------------------------------------------------------------
      1         25           0        0.000000    0.000000    0.050000
      2          1           0        0.000000    0.000000   -1.250000
 ---------------------------------------------------------------------

 SCF Done:  E(ROHF) =  -103.723882072     A.U. after   46 cycles
 E2 =    -0.5912131080D+00 EUMP2 =    -0.10431509518031D+03
 CCSD(T)
 CCSD(T)= -0.10433558142D+03

 The electronic state is 7-SG.
 Alpha  occ. eigenvalues --   -4.13909  -2.76403  -2.75868  -2.75868  -0.66686
 Alpha  occ. eigenvalues --   -0.63635  -0.63635  -0.63440  -0.63440  -0.41742
 Alpha  occ. eigenvalues --   -0.24263
 Alpha virt. eigenvalues --    0.01385   0.01385   0.02145   0.03279   0.05864
 Alpha virt. eigenvalues --    0.05864   0.08519   0.08519   0.08601   0.08950
 Alpha virt. eigenvalues --    0.08950   0.09061   0.14188   0.21580   0.22776

 Mulliken charges and spin densities:
               1          2
     1  Mn   0.454370   5.941499
     2  H   -0.454370   0.058501
 Sum of Mulliken charges =  -0.00000   6.00000

 Dipole moment (field-independent basis, Debye):
    X=              0.0000    Y=              0.0000    Z=             -0.0362  Tot=              0.0362
 Quadrupole moment (field-independent basis, Debye-Ang):
   XX=            -15.9785   YY=            -15.9785   ZZ=            -25.3658
   XY=              0.0000   XZ=              0.0000   YZ=              0.0000

 \\#P ROCCSD(T)=(maxcyc=150, Full, SaveAmplitudes, ReadAmplitudes)/Gen
 4SDQ=-104.3178226\CCSD=-104.3187958\CCSD(T)=-104.3355814\RMSD=9.369e-0
 Normal termination of Gaussian 16 at Thu Apr 19 08:11:09 2018.
