 Gaussian 16, Revision A.03,
 Gaussian 16:  ES64L-G16RevA.03 25-Dec-2016

 ----------------------------------------------------------------------
 #P ROCCSD(T)=(maxcyc=150, Full)/Gen 5d 7f SCF=(maxcycles=300) Integral
 (NoXCTest) MaxDisk=500GB Pop=Regular Pseudo=Read Guess=Read
 ----------------------------------------------------------------------

 ---
 CrH
 ---
 Symbolic Z-matrix:
 Charge =  0 Multiplicity = 6

                         Standard orientation:
 ---------------------------------------------------------------------
 Center     Atomic      Atomic             Coordinates (Angstroms)
 Number     Number       Type             X           Y           Z
 ---------------------------------------------------------------------
      1         24           0        0.000000    0.000000    0.060000
      2          1           0        0.000000    0.000000   -1.440000
 ---------------------------------------------------------------------

 SCF Done:  E(ROHF) =  -86.6833754488     A.U. after   23 cycles
 E2 =    -0.5837858953D+00 EUMP2 =    -0.87267161344121D+02
 CCSD(T)
 CCSD(T)= -0.87305236425D+02

 The electronic state is 6-SG.
 Alpha  occ. eigenvalues --   -3.69189  -2.44646  -2.44646  -2.40751  -0.51415
 Alpha  occ. eigenvalues --   -0.51415  -0.48459  -0.48459  -0.42664  -0.25611
 Alpha virt. eigenvalues --    0.01395   0.01395   0.01843   0.02124   0.04389
 Alpha virt. eigenvalues --    0.04972   0.04972   0.04995   0.04995   0.05263
 Alpha virt. eigenvalues --    0.05263   0.06108   0.08454   0.11845   0.15082

 Mulliken charges and spin densities:
               1          2
     1  Cr   0.385426   4.977462
     2  H   -0.385426   0.022538
 Sum of Mulliken charges =  -0.00000   5.00000

 Dipole moment (field-independent basis, Debye):
    X=              0.0000    Y=              0.0000    Z=              1.9588  Tot=              1.9588
 Quadrupole moment (field-independent basis, Debye-Ang):
   XX=            -16.9121   YY=            -16.9121   ZZ=            -22.0150
   XY=              0.0000   XZ=              0.0000   YZ=              0.0000

 \\#P ROCCSD(T)=(maxcyc=150, Full)/Gen 5d 7f SCF=(maxcycles=300) Integr
 7.2671613\MP4SDQ=-87.2744316\CCSD=-87.2858001\CCSD(T)=-87.3052364\RMSD
 Normal termination of Gaussian 16 at Tue Feb 13 04:30:52 2018.
