 Gaussian 16, Revision A.03,
 Gaussian 16:  ES64L-G16RevA.03 25-Dec-2016

 ----------------------------------------------------------------------
 #P ROCCSD(T)=(maxcyc=150, Full, SaveAmplitudes, ReadAmplitudes)/Gen 5d
  7f SCF=(maxcycles=300, VShift=400) Integral(NoXCTest) MaxDisk=500GB P
 op=Full Pseudo=Read Guess=Read IOp(5/15=2)
 ----------------------------------------------------------------------

 ---
 MnO
 ---
 Symbolic Z-matrix:
 Charge =  0 Multiplicity = 6

                         Standard orientation:
 ---------------------------------------------------------------------
 Center     Atomic      Atomic             Coordinates (Angstroms)
 Number     Number       Type             X           Y           Z
 ---------------------------------------------------------------------
      1         25           0        0.000000    0.000000    0.315152
      2          8           0        0.000000    0.000000   -0.984848
 ---------------------------------------------------------------------

 SCF Done:  E(ROHF) =  -119.188672955     A.U. after   46 cycles
 E2 =    -0.9395235080D+00 EUMP2 =    -0.12012819646311D+03
 CCSD(T)
 CCSD(T)= -0.12013462923D+03

 The electronic state is 6-SG.
 Alpha  occ. eigenvalues --   -4.12503  -2.72591  -2.72396  -2.72396  -1.27215
 Alpha  occ. eigenvalues --   -0.73821  -0.73821  -0.62221  -0.62221  -0.60001
 Alpha  occ. eigenvalues --   -0.41120  -0.41120  -0.29881
 Alpha virt. eigenvalues --    0.01903   0.02401   0.02401   0.03179   0.06432
 Alpha virt. eigenvalues --    0.07568   0.07568   0.08759   0.08759   0.09358
 Alpha virt. eigenvalues --    0.09358   0.10265   0.12095   0.16492   0.24628

 Mulliken charges and spin densities:
               1          2
     1  Mn   0.800239   4.764634
     2  O   -0.800239   0.235366
 Sum of Mulliken charges =  -0.00000   5.00000

 Dipole moment (field-independent basis, Debye):
    X=              0.0000    Y=              0.0000    Z=              2.7740  Tot=              2.7740
 Quadrupole moment (field-independent basis, Debye-Ang):
   XX=            -19.6969   YY=            -19.6969   ZZ=            -22.8030
   XY=              0.0000   XZ=              0.0000   YZ=              0.0000

 \\#P ROCCSD(T)=(maxcyc=150, Full, SaveAmplitudes, ReadAmplitudes)/Gen
 DQ=-120.1098127\CCSD=-120.0947133\CCSD(T)=-120.1346292\RMSD=7.978e-09\
 Normal termination of Gaussian 16 at Sun Apr  1 23:48:10 2018.
