 Gaussian 16, Revision A.03,
 Gaussian 16:  ES64L-G16RevA.03 25-Dec-2016

 ----------------------------------------------------------------------
 #P ROCCSD(T)=(maxcyc=150, Full, SaveAmplitudes, ReadAmplitudes)/Gen 5d
  7f SCF=(maxcycles=300, VShift=400) Integral(NoXCTest) MaxDisk=500GB P
 op=Full Pseudo=Read Guess=Read
 ----------------------------------------------------------------------

 ---
 MnH
 ---
 Symbolic Z-matrix:
 Charge =  0 Multiplicity = 7

                         Standard orientation:
 ---------------------------------------------------------------------
 Center     Atomic      Atomic             Coordinates (Angstroms)
 Number     Number       Type             X           Y           Z
 ---------------------------------------------------------------------
      1         25           0        0.000000    0.000000    0.076923
      2          1           0        0.000000    0.000000   -1.923077
 ---------------------------------------------------------------------

 SCF Done:  E(ROHF) =  -103.790121787     A.U. after   29 cycles
 E2 =    -0.5960070069D+00 EUMP2 =    -0.10438612879374D+03
 CCSD(T)
 CCSD(T)= -0.10440926052D+03

 The electronic state is 7-SG.
 Alpha  occ. eigenvalues --   -4.16048  -2.78320  -2.78320  -2.78053  -0.65936
 Alpha  occ. eigenvalues --   -0.65936  -0.65261  -0.65261  -0.65217  -0.38721
 Alpha  occ. eigenvalues --   -0.27003
 Alpha virt. eigenvalues --    0.00962   0.00962   0.02146   0.02897   0.04859
 Alpha virt. eigenvalues --    0.04859   0.05573   0.05754   0.05754   0.06197
 Alpha virt. eigenvalues --    0.06197   0.09622   0.12167   0.13648   0.18007

 Mulliken charges and spin densities:
               1          2
     1  Mn   0.382067   5.952082
     2  H   -0.382067   0.047918
 Sum of Mulliken charges =  -0.00000   6.00000

 Dipole moment (field-independent basis, Debye):
    X=              0.0000    Y=              0.0000    Z=              2.4266  Tot=              2.4266
 Quadrupole moment (field-independent basis, Debye-Ang):
   XX=            -16.4662   YY=            -16.4662   ZZ=            -28.0605
   XY=              0.0000   XZ=              0.0000   YZ=              0.0000

 \\#P ROCCSD(T)=(maxcyc=150, Full, SaveAmplitudes, ReadAmplitudes)/Gen
 PUHF=-103.7901218\PMP2-0=-104.3861288\CCSD=-104.3927465\CCSD(T)=-104.4
 Normal termination of Gaussian 16 at Thu Apr 19 10:37:57 2018.
