 Gaussian 16, Revision A.03,
 Gaussian 16:  ES64L-G16RevA.03 25-Dec-2016

 ----------------------------------------------------------------------
 #P ROCCSD(T)=(maxcyc=150, Full, SaveAmplitudes, ReadAmplitudes)/Gen 5d
  7f SCF=(maxcycles=300) Integral(NoXCTest) MaxDisk=500GB Pop=Regular P
 seudo=Read Guess=Read IOp(5/15=2)
 ----------------------------------------------------------------------

 ---
 MnH
 ---
 Symbolic Z-matrix:
 Charge =  0 Multiplicity = 7

                         Standard orientation:
 ---------------------------------------------------------------------
 Center     Atomic      Atomic             Coordinates (Angstroms)
 Number     Number       Type             X           Y           Z
 ---------------------------------------------------------------------
      1         25           0        0.000000    0.000000    0.069231
      2          1           0        0.000000    0.000000   -1.730769
 ---------------------------------------------------------------------

 SCF Done:  E(ROHF) =  -104.073581993     A.U. after   23 cycles
 E2 =    -0.5662091871D+00 EUMP2 =    -0.10463979118012D+03
 CCSD(T)
 CCSD(T)= -0.10466266199D+03

 The electronic state is 7-SG.
 Alpha  occ. eigenvalues --   -4.24734  -2.80189  -2.80189  -2.79925  -0.64922
 Alpha  occ. eigenvalues --   -0.64922  -0.64439  -0.64212  -0.64212  -0.40161
 Alpha  occ. eigenvalues --   -0.26443
 Alpha virt. eigenvalues --    0.01172   0.01172   0.02340   0.03120   0.05652
 Alpha virt. eigenvalues --    0.05652   0.08200   0.08444   0.08444   0.08924
 Alpha virt. eigenvalues --    0.08924   0.09970   0.13757   0.19206   0.22572

 Mulliken charges and spin densities:
               1          2
     1  Mn   0.429863   5.958640
     2  H   -0.429863   0.041360
 Sum of Mulliken charges =   0.00000   6.00000

 Dipole moment (field-independent basis, Debye):
    X=              0.0000    Y=              0.0000    Z=              1.6526  Tot=              1.6526
 Quadrupole moment (field-independent basis, Debye-Ang):
   XX=            -16.2953   YY=            -16.2953   ZZ=            -26.8734
   XY=              0.0000   XZ=              0.0000   YZ=              0.0000

 \\#P ROCCSD(T)=(maxcyc=150, Full, SaveAmplitudes, ReadAmplitudes)/Gen
 463961\CCSD=-104.6473137\CCSD(T)=-104.662662\RMSD=8.993e-09\PG=C*V [C*
 Normal termination of Gaussian 16 at Mon Feb 26 13:37:53 2018.
