 Gaussian 16, Revision A.03,
 Gaussian 16:  ES64L-G16RevA.03 25-Dec-2016

 ----------------------------------------------------------------------
 #P ROCCSD(T)=(MaxCyc=150, Full)/Gen SCF=(maxcycle=400) Pseudo=Read Int
 egral(NoXCTest) Pop=Regular MaxDisk=500GB Guess=Read IOp(5/15=2)
 ----------------------------------------------------------------------

 ---
 CuH
 ---
 Symbolic Z-matrix:
 Charge =  0 Multiplicity = 1

                         Standard orientation:
 ---------------------------------------------------------------------
 Center     Atomic      Atomic             Coordinates (Angstroms)
 Number     Number       Type             X           Y           Z
 ---------------------------------------------------------------------
      1         29           0        0.000000    0.000000    0.053333
      2          1           0        0.000000    0.000000   -1.546667
 ---------------------------------------------------------------------

 SCF Done:  E(ROHF) =  -196.729544092     A.U. after   12 cycles
 E2 =    -0.1077273109D+01 EUMP2 =    -0.19780681720138D+03
 CCSD(T)
 CCSD(T)= -0.19772948950D+03

 The electronic state is 1-SG.
 Alpha  occ. eigenvalues --   -5.23649  -3.43934  -3.43748  -3.43748  -0.49811
 Alpha  occ. eigenvalues --   -0.49579  -0.49579  -0.49573  -0.49573  -0.33747
 Alpha virt. eigenvalues --   -0.00055   0.02910   0.02910   0.03672   0.05169
 Alpha virt. eigenvalues --    0.10001   0.10294   0.10294   0.17163   0.19690
 Alpha virt. eigenvalues --    0.19690   0.20253   0.20253   0.20888   0.25902

 Mulliken charges and spin densities:
               1          2
     1  Cu   0.375572   0.000000
     2  H   -0.375572   0.000000
 Sum of Mulliken charges =  -0.00000   0.00000

 Dipole moment (field-independent basis, Debye):
    X=              0.0000    Y=              0.0000    Z=              4.1739  Tot=              4.1739
 Quadrupole moment (field-independent basis, Debye-Ang):
   XX=            -13.6264   YY=            -13.6264   ZZ=            -16.5534
   XY=              0.0000   XZ=              0.0000   YZ=              0.0000

 P ROCCSD(T)=(MaxCyc=150, Full)/Gen SCF=(maxcycle=400) Pseudo=Read Inte
 2-0=-197.8068172\MP4SDQ=-197.7658939\CCSD=-197.6931702\CCSD(T)=-197.72
 Normal termination of Gaussian 16 at Wed Apr  4 23:01:09 2018.
