 Gaussian 16, Revision A.03,
 Gaussian 16:  ES64L-G16RevA.03 25-Dec-2016

 ----------------------------------------------------------------------
 #P ROCCSD(T)=(MaxCyc=150, Full)/Gen SCF=(maxcycle=400) Pseudo=Read Int
 egral(NoXCTest) Pop=Regular MaxDisk=500GB Guess=Read IOp(5/15=2)
 ----------------------------------------------------------------------

 ---
 CuH
 ---
 Symbolic Z-matrix:
 Charge =  0 Multiplicity = 1

                         Standard orientation:
 ---------------------------------------------------------------------
 Center     Atomic      Atomic             Coordinates (Angstroms)
 Number     Number       Type             X           Y           Z
 ---------------------------------------------------------------------
      1         29           0        0.000000    0.000000    0.053333
      2          1           0        0.000000    0.000000   -1.546667
 ---------------------------------------------------------------------

 SCF Done:  E(ROHF) =  -196.730915718     A.U. after    6 cycles
 E2 =    -0.1154051957D+01 EUMP2 =    -0.19788496767555D+03
 CCSD(T)
 CCSD(T)= -0.19780411944D+03

 The electronic state is 1-SG.
 Alpha  occ. eigenvalues --   -5.23654  -3.43927  -3.43746  -3.43746  -0.49811
 Alpha  occ. eigenvalues --   -0.49585  -0.49585  -0.49582  -0.49582  -0.33753
 Alpha virt. eigenvalues --   -0.00124   0.02533   0.02533   0.03043   0.04091
 Alpha virt. eigenvalues --    0.07680   0.08559   0.08559   0.12147   0.12147
 Alpha virt. eigenvalues --    0.12176   0.12416   0.12416   0.14992   0.18518

 Mulliken charges and spin densities:
               1          2
     1  Cu   0.306086   0.000000
     2  H   -0.306086   0.000000
 Sum of Mulliken charges =  -0.00000   0.00000

 Dipole moment (field-independent basis, Debye):
    X=              0.0000    Y=              0.0000    Z=              4.1621  Tot=              4.1621
 Quadrupole moment (field-independent basis, Debye-Ang):
   XX=            -13.6148   YY=            -13.6148   ZZ=            -16.5739
   XY=              0.0000   XZ=              0.0000   YZ=              0.0000

 P ROCCSD(T)=(MaxCyc=150, Full)/Gen SCF=(maxcycle=400) Pseudo=Read Inte
 2-0=-197.8849677\MP4SDQ=-197.8364929\CCSD=-197.7650188\CCSD(T)=-197.80
 Normal termination of Gaussian 16 at Thu Apr  5 02:45:31 2018.
