 Gaussian 16, Revision A.03,
 Gaussian 16:  ES64L-G16RevA.03 25-Dec-2016

 ----------------------------------------------------------------------
 #P ROCCSD(T)=(MaxCyc=150, Full)/Gen SCF=(maxcycle=400) Pseudo=Read Int
 egral(NoXCTest) Pop=Regular MaxDisk=500GB Guess=Read IOp(5/15=2)
 ----------------------------------------------------------------------

 ---
 CuH
 ---
 Symbolic Z-matrix:
 Charge =  0 Multiplicity = 1

                         Standard orientation:
 ---------------------------------------------------------------------
 Center     Atomic      Atomic             Coordinates (Angstroms)
 Number     Number       Type             X           Y           Z
 ---------------------------------------------------------------------
      1         29           0        0.000000    0.000000    0.053333
      2          1           0        0.000000    0.000000   -1.546667
 ---------------------------------------------------------------------

 SCF Done:  E(ROHF) =  -196.730844563     A.U. after   10 cycles
 E2 =    -0.1129107350D+01 EUMP2 =    -0.19785995191263D+03
 CCSD(T)
 CCSD(T)= -0.19778127437D+03

 The electronic state is 1-SG.
 Alpha  occ. eigenvalues --   -5.23653  -3.43926  -3.43745  -3.43745  -0.49810
 Alpha  occ. eigenvalues --   -0.49584  -0.49584  -0.49581  -0.49581  -0.33752
 Alpha virt. eigenvalues --   -0.00068   0.02617   0.02617   0.03327   0.04824
 Alpha virt. eigenvalues --    0.08889   0.08924   0.08924   0.13434   0.13524
 Alpha virt. eigenvalues --    0.13524   0.13825   0.13825   0.19638   0.22015

 Mulliken charges and spin densities:
               1          2
     1  Cu   0.350823   0.000000
     2  H   -0.350823   0.000000
 Sum of Mulliken charges =  -0.00000   0.00000

 Dipole moment (field-independent basis, Debye):
    X=              0.0000    Y=              0.0000    Z=              4.1638  Tot=              4.1638
 Quadrupole moment (field-independent basis, Debye-Ang):
   XX=            -13.6163   YY=            -13.6163   ZZ=            -16.5711
   XY=              0.0000   XZ=              0.0000   YZ=              0.0000

 P ROCCSD(T)=(MaxCyc=150, Full)/Gen SCF=(maxcycle=400) Pseudo=Read Inte
 2-0=-197.8599519\MP4SDQ=-197.8148777\CCSD=-197.7429226\CCSD(T)=-197.78
 Normal termination of Gaussian 16 at Wed Apr  4 23:53:58 2018.
