 Gaussian 16, Revision A.03,
 Gaussian 16:  ES64L-G16RevA.03 25-Dec-2016

 ----------------------------------------------------------------------
 #P ROCCSD(T)=(MaxCyc=150, Full)/Gen SCF=(maxcycle=400) Pseudo=Read Int
 egral(NoXCTest) Pop=Regular MaxDisk=500GB Guess=Read IOp(5/15=2)
 ----------------------------------------------------------------------

 ---
 ZnO
 ---
 Symbolic Z-matrix:
 Charge =  0 Multiplicity = 1

                         Standard orientation:
 ---------------------------------------------------------------------
 Center     Atomic      Atomic             Coordinates (Angstroms)
 Number     Number       Type             X           Y           Z
 ---------------------------------------------------------------------
      1         30           0        0.000000    0.000000    0.400000
      2          8           0        0.000000    0.000000   -1.500000
 ---------------------------------------------------------------------

 SCF Done:  E(ROHF) =  -241.646108731     A.U. after    1 cycles
 E2 =    -0.1311104626D+01 EUMP2 =    -0.24295721335763D+03
 CCSD(T)
 CCSD(T)= -0.24291374514D+03

 The electronic state is 1-SG.
 Alpha  occ. eigenvalues --   -5.92018  -3.99170  -3.99170  -3.99122  -1.16973
 Alpha  occ. eigenvalues --   -0.82086  -0.82086  -0.81924  -0.81924  -0.80943
 Alpha  occ. eigenvalues --   -0.43029  -0.43029  -0.35479
 Alpha virt. eigenvalues --   -0.04204   0.02492   0.02492   0.02773   0.04513
 Alpha virt. eigenvalues --    0.08487   0.08487   0.13145   0.17433   0.21464
 Alpha virt. eigenvalues --    0.22793   0.22793   0.24734   0.24734   0.30130

 Mulliken charges and spin densities:
               1          2
     1  Zn   0.786895   0.000000
     2  O   -0.786895   0.000000
 Sum of Mulliken charges =  -0.00000   0.00000

 Dipole moment (field-independent basis, Debye):
    X=              0.0000    Y=              0.0000    Z=              6.0947  Tot=              6.0947
 Quadrupole moment (field-independent basis, Debye-Ang):
   XX=            -18.5029   YY=            -18.5029   ZZ=            -21.9173
   XY=              0.0000   XZ=              0.0000   YZ=              0.0000

 P ROCCSD(T)=(MaxCyc=150, Full)/Gen SCF=(maxcycle=400) Pseudo=Read Inte
 2-0=-242.9572134\MP4SDQ=-242.9010011\CCSD=-242.8658992\CCSD(T)=-242.91
 Normal termination of Gaussian 16 at Wed Mar 28 00:21:05 2018.
