 Gaussian 16, Revision A.03,
 Gaussian 16:  ES64L-G16RevA.03 25-Dec-2016

 ----------------------------------------------------------------------
 #P ROCCSD(T)=(MaxCyc=150, Full)/Gen SCF=(maxcycle=400) Pseudo=Read Int
 egral(NoXCTest) Pop=Regular MaxDisk=500GB Guess=Read IOp(5/15=2)
 ----------------------------------------------------------------------

 ---
 ZnO
 ---
 Symbolic Z-matrix:
 Charge =  0 Multiplicity = 1

                         Standard orientation:
 ---------------------------------------------------------------------
 Center     Atomic      Atomic             Coordinates (Angstroms)
 Number     Number       Type             X           Y           Z
 ---------------------------------------------------------------------
      1         30           0        0.000000    0.000000    0.400000
      2          8           0        0.000000    0.000000   -1.500000
 ---------------------------------------------------------------------

 SCF Done:  E(ROHF) =  -241.649595087     A.U. after   11 cycles
 E2 =    -0.1378130131D+01 EUMP2 =    -0.24302772521772D+03
 CCSD(T)
 CCSD(T)= -0.24298185444D+03

 The electronic state is 1-SG.
 Alpha  occ. eigenvalues --   -5.91998  -3.99145  -3.99145  -3.99092  -1.16924
 Alpha  occ. eigenvalues --   -0.82067  -0.82067  -0.81910  -0.81910  -0.80921
 Alpha  occ. eigenvalues --   -0.43052  -0.43052  -0.35458
 Alpha virt. eigenvalues --   -0.04188   0.02289   0.02289   0.02535   0.04070
 Alpha virt. eigenvalues --    0.07430   0.07430   0.11724   0.16598   0.16917
 Alpha virt. eigenvalues --    0.17840   0.17840   0.19753   0.19753   0.23223

 Mulliken charges and spin densities:
               1          2
     1  Zn   0.744611   0.000000
     2  O   -0.744611   0.000000
 Sum of Mulliken charges =  -0.00000   0.00000

 Dipole moment (field-independent basis, Debye):
    X=              0.0000    Y=              0.0000    Z=              6.0802  Tot=              6.0802
 Quadrupole moment (field-independent basis, Debye-Ang):
   XX=            -18.4899   YY=            -18.4899   ZZ=            -21.9190
   XY=              0.0000   XZ=              0.0000   YZ=              0.0000

 P ROCCSD(T)=(MaxCyc=150, Full)/Gen SCF=(maxcycle=400) Pseudo=Read Inte
 2-0=-243.0277252\MP4SDQ=-242.9661069\CCSD=-242.9314661\CCSD(T)=-242.98
 Normal termination of Gaussian 16 at Wed Mar 28 02:34:06 2018.
