 Gaussian 16, Revision A.03,
 Gaussian 16:  ES64L-G16RevA.03 25-Dec-2016

 ----------------------------------------------------------------------
 #P ROCCSD(T)=(maxcyc=150, Full, SaveAmplitudes, ReadAmplitudes)/Gen 5d
  7f SCF=(maxcycles=300) Integral(NoXCTest) MaxDisk=500GB Pop=Regular P
 seudo=Read Guess=Read IOp(5/15=2)
 ----------------------------------------------------------------------

 ---
 CrO
 ---
 Symbolic Z-matrix:
 Charge =  0 Multiplicity = 5

                         Standard orientation:
 ---------------------------------------------------------------------
 Center     Atomic      Atomic             Coordinates (Angstroms)
 Number     Number       Type             X           Y           Z
 ---------------------------------------------------------------------
      1         24           0        0.000000    0.000000    0.375000
      2          8           0        0.000000    0.000000   -1.125000
 ---------------------------------------------------------------------

 SCF Done:  E(ROHF) =  -101.998277511     A.U. after   29 cycles
 E2 =    -0.8910270081D+00 EUMP2 =    -0.10288930451934D+03
 CCSD(T)
 CCSD(T)= -0.10291412145D+03

 Unable to determine electronic state:  an orbital has unidentified symmetry.
 Alpha  occ. eigenvalues --   -3.71056  -2.48635  -2.44622  -2.41733  -1.21442
 Alpha  occ. eigenvalues --   -0.63430  -0.57683  -0.56077  -0.50460  -0.48132
 Alpha  occ. eigenvalues --   -0.39833  -0.30248
 Alpha virt. eigenvalues --    0.00669   0.01218   0.01910   0.03150   0.04548
 Alpha virt. eigenvalues --    0.04858   0.06290   0.07604   0.07614   0.08010
 Alpha virt. eigenvalues --    0.08431   0.08579   0.12845   0.14348   0.16503

 Mulliken charges and spin densities:
               1          2
     1  Cr   1.033802   3.835264
     2  O   -1.033802   0.164736
 Sum of Mulliken charges =  -0.00000   4.00000

 Dipole moment (field-independent basis, Debye):
    X=              0.0000    Y=              0.0000    Z=              4.4112  Tot=              4.4112
 Quadrupole moment (field-independent basis, Debye-Ang):
   XX=            -20.7742   YY=            -19.6564   ZZ=            -24.5617
   XY=              0.0000   XZ=              0.0000   YZ=              0.0000

 \\#P ROCCSD(T)=(maxcyc=150, Full, SaveAmplitudes, ReadAmplitudes)/Gen
 D=-102.8658726\CCSD(T)=-102.9141215\RMSD=2.231e-09\PG=C*V [C*(O1Cr1)]\
 Normal termination of Gaussian 16 at Tue Mar 13 05:02:23 2018.
