 Gaussian 16, Revision A.03,
 Gaussian 16:  ES64L-G16RevA.03 25-Dec-2016

 ----------------------------------------------------------------------
 #P ROCCSD(T)=(maxcyc=150, Full, SaveAmplitudes, ReadAmplitudes)/Gen 5d
  7f SCF=(maxcycles=300) Integral(NoXCTest) MaxDisk=500GB Pop=Regular P
 seudo=Read Guess=Read IOp(5/15=2)
 ----------------------------------------------------------------------

 ---
 MnO
 ---
 Symbolic Z-matrix:
 Charge =  0 Multiplicity = 6

                         Standard orientation:
 ---------------------------------------------------------------------
 Center     Atomic      Atomic             Coordinates (Angstroms)
 Number     Number       Type             X           Y           Z
 ---------------------------------------------------------------------
      1         25           0        0.000000    0.000000    0.290909
      2          8           0        0.000000    0.000000   -0.909091
 ---------------------------------------------------------------------

 SCF Done:  E(ROHF) =  -119.044487027     A.U. after   27 cycles
 E2 =    -0.9511833986D+00 EUMP2 =    -0.11999567042579D+03
 CCSD(T)
 CCSD(T)= -0.11999877821D+03

 The electronic state is 6-SG.
 Alpha  occ. eigenvalues --   -4.07360  -2.75560  -2.72012  -2.72012  -1.30028
 Alpha  occ. eigenvalues --   -0.78314  -0.78314  -0.65955  -0.59684  -0.59684
 Alpha  occ. eigenvalues --   -0.38511  -0.38511  -0.29025
 Alpha virt. eigenvalues --    0.02314   0.02657   0.02657   0.02964   0.07199
 Alpha virt. eigenvalues --    0.08152   0.08152   0.08825   0.08825   0.09488
 Alpha virt. eigenvalues --    0.09488   0.10843   0.11705   0.17178   0.25241

 Mulliken charges and spin densities:
               1          2
     1  Mn   0.656870   4.726520
     2  O   -0.656870   0.273480
 Sum of Mulliken charges =  -0.00000   5.00000

 Dipole moment (field-independent basis, Debye):
    X=              0.0000    Y=              0.0000    Z=              1.2970  Tot=              1.2970
 Quadrupole moment (field-independent basis, Debye-Ang):
   XX=            -20.1157   YY=            -20.1157   ZZ=            -22.2933
   XY=              0.0000   XZ=              0.0000   YZ=              0.0000

 \\#P ROCCSD(T)=(maxcyc=150, Full, SaveAmplitudes, ReadAmplitudes)/Gen
 721782\CCSD=-119.9605668\CCSD(T)=-119.9987782\RMSD=3.835e-09\PG=C*V [C
 Normal termination of Gaussian 16 at Tue Mar 13 12:32:55 2018.
