 Gaussian 16, Revision A.03,
 Gaussian 16:  ES64L-G16RevA.03 25-Dec-2016

 ----------------------------------------------------------------------
 #P ROCCSD(T)=(maxcyc=150, Full, SaveAmplitudes, ReadAmplitudes)/Gen 5d
  7f SCF=(maxcycles=300, VShift=400) Integral(NoXCTest) MaxDisk=500GB P
 op=Full Pseudo=Read Guess=Read IOp(5/15=2)
 ----------------------------------------------------------------------

 ---
 MnO
 ---
 Symbolic Z-matrix:
 Charge =  0 Multiplicity = 6

                         Standard orientation:
 ---------------------------------------------------------------------
 Center     Atomic      Atomic             Coordinates (Angstroms)
 Number     Number       Type             X           Y           Z
 ---------------------------------------------------------------------
      1         25           0        0.000000    0.000000    0.315152
      2          8           0        0.000000    0.000000   -0.984848
 ---------------------------------------------------------------------

 SCF Done:  E(ROHF) =  -118.741757804     A.U. after   47 cycles
 E2 =    -0.9351055173D+00 EUMP2 =    -0.11967686332100D+03
 CCSD(T)
 CCSD(T)= -0.11968312180D+03

 The electronic state is 6-SG.
 Alpha  occ. eigenvalues --   -4.12022  -2.73930  -2.73737  -2.73737  -1.27499
 Alpha  occ. eigenvalues --   -0.73422  -0.73422  -0.61427  -0.61427  -0.60117
 Alpha  occ. eigenvalues --   -0.40704  -0.40704  -0.30097
 Alpha virt. eigenvalues --    0.01912   0.02421   0.02421   0.03170   0.06420
 Alpha virt. eigenvalues --    0.07598   0.07598   0.08764   0.08764   0.09363
 Alpha virt. eigenvalues --    0.09363   0.10268   0.12082   0.16453   0.24596

 Mulliken charges and spin densities:
               1          2
     1  Mn   0.801354   4.760374
     2  O   -0.801354   0.239626
 Sum of Mulliken charges =  -0.00000   5.00000

 Dipole moment (field-independent basis, Debye):
    X=              0.0000    Y=              0.0000    Z=              2.7325  Tot=              2.7325
 Quadrupole moment (field-independent basis, Debye-Ang):
   XX=            -19.8420   YY=            -19.8420   ZZ=            -22.9127
   XY=              0.0000   XZ=              0.0000   YZ=              0.0000

 \\#P ROCCSD(T)=(maxcyc=150, Full, SaveAmplitudes, ReadAmplitudes)/Gen
 4SDQ=-119.6582229\CCSD=-119.6434232\CCSD(T)=-119.6831218\RMSD=9.165e-0
 Normal termination of Gaussian 16 at Thu Apr 19 08:06:08 2018.
