 Gaussian 16, Revision A.03,
 Gaussian 16:  ES64L-G16RevA.03 25-Dec-2016

 ----------------------------------------------------------------------
 #P ROCCSD(T)=(MaxCyc=150, Window=(7,0))/Gen SCF=(maxcycle=400) Integra
 l(DKHSO, NoXCTest) Pop=Regular MaxDisk=500GB Guess=Read IOp(5/15=2)
 ----------------------------------------------------------------------

 ---
 ZnO
 ---
 Symbolic Z-matrix:
 Charge =  0 Multiplicity = 1

                         Standard orientation:
 ---------------------------------------------------------------------
 Center     Atomic      Atomic             Coordinates (Angstroms)
 Number     Number       Type             X           Y           Z
 ---------------------------------------------------------------------
      1         30           0        0.000000    0.000000    0.442105
      2          8           0        0.000000    0.000000   -1.657895
 ---------------------------------------------------------------------

 SCF Done:  E(ROHF) =  -1869.05231339     A.U. after   12 cycles
 E2 =    -0.1284133009D+01 EUMP2 =    -0.18703364464035D+04
 CCSD(T)
 CCSD(T)= -0.18702932799D+04

 The electronic state is 1-SG.
 Alpha  occ. eigenvalues -- -357.61330 -45.37862 -39.18181 -39.18181 -39.18050
 Alpha  occ. eigenvalues --  -20.58796  -5.84698  -3.92599  -3.92599  -3.92547
 Alpha  occ. eigenvalues --   -1.16792  -0.81277  -0.81277  -0.81234  -0.81234
 Alpha  occ. eigenvalues --   -0.80730  -0.46117  -0.46117  -0.34222
 Alpha virt. eigenvalues --   -0.03584   0.02456   0.02456   0.02922   0.04359
 Alpha virt. eigenvalues --    0.08352   0.08352   0.12970   0.17323   0.20821
 Alpha virt. eigenvalues --    0.21909   0.21909   0.24899   0.24899   0.30304

 Mulliken charges and spin densities:
               1          2
     1  Zn   0.582894   0.000000
     2  O   -0.582894   0.000000
 Sum of Mulliken charges =  -0.00000   0.00000

 Dipole moment (field-independent basis, Debye):
    X=              0.0000    Y=              0.0000    Z=              5.0233  Tot=              5.0233
 Quadrupole moment (field-independent basis, Debye-Ang):
   XX=            -19.2739   YY=            -19.2739   ZZ=            -22.1473
   XY=              0.0000   XZ=              0.0000   YZ=              0.0000

 ROCCSD(T)=(MaxCyc=150, Window=(7,0))/Gen SCF=(maxcycle=400) Integral(D
 Normal termination of Gaussian 16 at Fri May  4 17:43:01 2018.
