 Gaussian 16, Revision A.03,
 Gaussian 16:  ES64L-G16RevA.03 25-Dec-2016

 ----------------------------------------------------------------------
 #P ROCCSD(T)=(MaxCyc=150, Full)/Gen SCF=(maxcycle=400) Pseudo=Read Int
 egral(NoXCTest) Pop=Regular MaxDisk=500GB Guess=Read IOp(5/15=2)
 ----------------------------------------------------------------------

 --
 Fe
 --
 Symbolic Z-matrix:
 Charge =  0 Multiplicity = 5

                         Standard orientation:
 ---------------------------------------------------------------------
 Center     Atomic      Atomic             Coordinates (Angstroms)
 Number     Number       Type             X           Y           Z
 ---------------------------------------------------------------------
      1         26           0        0.000000    0.000000    0.000000
 ---------------------------------------------------------------------

 SCF Done:  E(ROHF) =  -122.821859878     A.U. after    1 cycles
 E2 =    -0.7077282609D+00 EUMP2 =    -0.12352958813908D+03
 CCSD(T)
 CCSD(T)= -0.12354224063D+03

 Unable to determine electronic state:  an orbital has unidentified symmetry.
 Alpha  occ. eigenvalues --   -4.38872  -3.05682  -2.97858  -2.97858  -0.70138
 Alpha  occ. eigenvalues --   -0.69132  -0.69132  -0.65974  -0.60794  -0.27538
 Alpha virt. eigenvalues --    0.01735   0.01900   0.01900   0.02199   0.05664
 Alpha virt. eigenvalues --    0.06018   0.06018   0.06209   0.06214   0.06214
 Alpha virt. eigenvalues --    0.06230   0.06237   0.10785   0.19008   0.19396

 Mulliken charges and spin densities:
               1          2
     1  Fe   0.000000   4.000000
 Sum of Mulliken charges =   0.00000   4.00000

 Dipole moment (field-independent basis, Debye):
    X=              0.0000    Y=              0.0000    Z=              0.0000  Tot=              0.0000
 Quadrupole moment (field-independent basis, Debye-Ang):
   XX=            -18.0625   YY=            -18.0626   ZZ=            -17.8044
   XY=              0.0000   XZ=              0.0000   YZ=             -0.0000

 1\1\GINC-C453-112\SP\ROCCSD(T)-Full\Gen\Fe1(5)\GWANG18\23-Mar-2018\0\\
 #P ROCCSD(T)=(MaxCyc=150, Full)/Gen SCF=(maxcycle=400) Pseudo=Read Int
 egral(NoXCTest) Pop=Regular MaxDisk=500GB Guess=Read IOp(5/15=2)\\Fe\\
 0,5\Fe,0,0.,0.,0.\\Version=ES64L-G16RevA.03\HF=-122.8218599\MP2=-123.5
 295881\MP3=-123.5131893\PUHF=-122.8218599\PMP2-0=-123.5295881\MP4SDQ=-
 123.5216259\CCSD=-123.5202386\CCSD(T)=-123.5422406\RMSD=1.959e-09\PG=O
 H [O(Fe1)]\\@

 Normal termination of Gaussian 16 at Fri Mar 23 20:05:51 2018.
