 Gaussian 16, Revision A.03,
 Gaussian 16:  ES64L-G16RevA.03 25-Dec-2016

 ----------------------------------------------------------------------
 #P ROCCSD(T)=(MaxCyc=150, Full)/Gen SCF=(maxcycle=400) Pseudo=Read Int
 egral(NoXCTest) Pop=Regular MaxDisk=500GB Guess=Read IOp(5/15=2)
 ----------------------------------------------------------------------

 --
 Fe
 --
 Symbolic Z-matrix:
 Charge =  0 Multiplicity = 5

                         Standard orientation:
 ---------------------------------------------------------------------
 Center     Atomic      Atomic             Coordinates (Angstroms)
 Number     Number       Type             X           Y           Z
 ---------------------------------------------------------------------
      1         26           0        0.000000    0.000000    0.000000
 ---------------------------------------------------------------------

 SCF Done:  E(ROHF) =  -122.821747932     A.U. after    1 cycles
 E2 =    -0.6947783415D+00 EUMP2 =    -0.12351652627318D+03
 CCSD(T)
 CCSD(T)= -0.12353087200D+03

 Unable to determine electronic state:  an orbital has unidentified symmetry.
 Alpha  occ. eigenvalues --   -4.38872  -3.05684  -2.97860  -2.97860  -0.70139
 Alpha  occ. eigenvalues --   -0.69133  -0.69133  -0.65976  -0.60791  -0.27538
 Alpha virt. eigenvalues --    0.01765   0.01937   0.01937   0.02705   0.05882
 Alpha virt. eigenvalues --    0.06246   0.06246   0.06763   0.06769   0.06769
 Alpha virt. eigenvalues --    0.06787   0.06797   0.14340   0.20273   0.20836

 Mulliken charges and spin densities:
               1          2
     1  Fe  -0.000000   4.000000
 Sum of Mulliken charges =  -0.00000   4.00000

 Dipole moment (field-independent basis, Debye):
    X=              0.0000    Y=              0.0000    Z=              0.0000  Tot=              0.0000
 Quadrupole moment (field-independent basis, Debye-Ang):
   XX=            -17.8050   YY=            -18.0635   ZZ=            -18.0635
   XY=              0.0000   XZ=             -0.0000   YZ=              0.0000

 1\1\GINC-C453-112\SP\ROCCSD(T)-Full\Gen\Fe1(5)\GWANG18\23-Mar-2018\0\\
 #P ROCCSD(T)=(MaxCyc=150, Full)/Gen SCF=(maxcycle=400) Pseudo=Read Int
 egral(NoXCTest) Pop=Regular MaxDisk=500GB Guess=Read IOp(5/15=2)\\Fe\\
 0,5\Fe,0,0.,0.,0.\\Version=ES64L-G16RevA.03\HF=-122.8217479\MP2=-123.5
 165263\MP3=-123.5020233\PUHF=-122.8217479\PMP2-0=-123.5165263\MP4SDQ=-
 123.5107536\CCSD=-123.5092763\CCSD(T)=-123.530872\RMSD=1.841e-11\PG=OH
  [O(Fe1)]\\@

 Normal termination of Gaussian 16 at Fri Mar 23 19:22:06 2018.
