 Gaussian 16, Revision A.03,
 Gaussian 16:  ES64L-G16RevA.03 25-Dec-2016

 ----------------------------------------------------------------------
 #P ROCCSD(T)=(MaxCyc=150, Full)/Gen SCF=(maxcycle=400) Pseudo=Read Int
 egral(NoXCTest) Pop=Regular MaxDisk=500GB Guess=Read IOp(5/15=2)
 ----------------------------------------------------------------------

 --
 Fe
 --
 Symbolic Z-matrix:
 Charge =  0 Multiplicity = 5

                         Standard orientation:
 ---------------------------------------------------------------------
 Center     Atomic      Atomic             Coordinates (Angstroms)
 Number     Number       Type             X           Y           Z
 ---------------------------------------------------------------------
      1         26           0        0.000000    0.000000    0.000000
 ---------------------------------------------------------------------

 SCF Done:  E(ROHF) =  -122.820543032     A.U. after    1 cycles
 E2 =    -0.6622293158D+00 EUMP2 =    -0.12348277234803D+03
 CCSD(T)
 CCSD(T)= -0.12349845869D+03

 Unable to determine electronic state:  an orbital has unidentified symmetry.
 Alpha  occ. eigenvalues --   -4.38891  -3.05700  -2.97875  -2.97875  -0.70129
 Alpha  occ. eigenvalues --   -0.69124  -0.69123  -0.65969  -0.60780  -0.27543
 Alpha virt. eigenvalues --    0.01864   0.02058   0.02058   0.02826   0.06655
 Alpha virt. eigenvalues --    0.07054   0.07054   0.10060   0.10073   0.10073
 Alpha virt. eigenvalues --    0.10116   0.10144   0.14873   0.24979   0.25674

 Mulliken charges and spin densities:
               1          2
     1  Fe  -0.000000   4.000000
 Sum of Mulliken charges =  -0.00000   4.00000

 Dipole moment (field-independent basis, Debye):
    X=              0.0000    Y=              0.0000    Z=              0.0000  Tot=              0.0000
 Quadrupole moment (field-independent basis, Debye-Ang):
   XX=            -18.0646   YY=            -17.8042   ZZ=            -18.0646
   XY=             -0.0000   XZ=              0.0000   YZ=              0.0000

 1\1\GINC-C453-112\SP\ROCCSD(T)-Full\Gen\Fe1(5)\GWANG18\23-Mar-2018\0\\
 #P ROCCSD(T)=(MaxCyc=150, Full)/Gen SCF=(maxcycle=400) Pseudo=Read Int
 egral(NoXCTest) Pop=Regular MaxDisk=500GB Guess=Read IOp(5/15=2)\\Fe\\
 0,5\Fe,0,0.,0.,0.\\Version=ES64L-G16RevA.03\HF=-122.820543\MP2=-123.48
 27723\MP3=-123.4699549\PUHF=-122.820543\PMP2-0=-123.4827723\MP4SDQ=-12
 3.4796003\CCSD=-123.4779892\CCSD(T)=-123.4984587\RMSD=5.956e-11\PG=OH
 [O(Fe1)]\\@

 Normal termination of Gaussian 16 at Fri Mar 23 19:00:57 2018.
