 Gaussian 16, Revision A.03,
 Gaussian 16:  ES64L-G16RevA.03 25-Dec-2016

 ----------------------------------------------------------------------
 #P ROCCSD(T)=(maxcyc=150, Full, SaveAmplitudes, ReadAmplitudes)/Gen 5d
  7f SCF=(maxcycles=300) Integral(NoXCTest) MaxDisk=500GB Pop=Regular P
 seudo=Read Guess=Read
 ----------------------------------------------------------------------

 ---
 CrO
 ---
 Symbolic Z-matrix:
 Charge =  0 Multiplicity = 5

                         Standard orientation:
 ---------------------------------------------------------------------
 Center     Atomic      Atomic             Coordinates (Angstroms)
 Number     Number       Type             X           Y           Z
 ---------------------------------------------------------------------
      1         24           0        0.000000    0.000000    0.425000
      2          8           0        0.000000    0.000000   -1.275000
 ---------------------------------------------------------------------

 SCF Done:  E(ROHF) =  -102.004335966     A.U. after   27 cycles
 E2 =    -0.9031380752D+00 EUMP2 =    -0.10290747404118D+03
 CCSD(T)
 CCSD(T)= -0.10294953835D+03

 Unable to determine electronic state:  an orbital has unidentified symmetry.
 Alpha  occ. eigenvalues --   -3.75947  -2.47422  -2.42712  -2.41576  -1.12015
 Alpha  occ. eigenvalues --   -0.56376  -0.56234  -0.54502  -0.49859  -0.36714
 Alpha  occ. eigenvalues --   -0.34021  -0.32952
 Alpha virt. eigenvalues --   -0.03347   0.00807   0.01380   0.01751   0.03128
 Alpha virt. eigenvalues --    0.04644   0.05254   0.05254   0.05684   0.05968
 Alpha virt. eigenvalues --    0.06099   0.06650   0.11161   0.11462   0.13686

 Mulliken charges and spin densities:
               1          2
     1  Cr   1.119542   3.920496
     2  O   -1.119542   0.079504
 Sum of Mulliken charges =  -0.00000   4.00000

 Dipole moment (field-independent basis, Debye):
    X=              0.0000    Y=              0.0000    Z=              8.8188  Tot=              8.8188
 Quadrupole moment (field-independent basis, Debye-Ang):
   XX=            -19.6549   YY=            -18.6559   ZZ=            -23.0975
   XY=              0.0000   XZ=              0.0000   YZ=              0.0000

 \\#P ROCCSD(T)=(maxcyc=150, Full, SaveAmplitudes, ReadAmplitudes)/Gen
 -0=-102.907474\CCSD=-102.8972892\CCSD(T)=-102.9495383\RMSD=4.942e-09\P
 Normal termination of Gaussian 16 at Tue Mar 13 08:14:31 2018.
