 Gaussian 16, Revision A.03,
 Gaussian 16:  ES64L-G16RevA.03 25-Dec-2016

 ----------------------------------------------------------------------
 #P ROCCSD(T)=(maxcyc=150, Full)/Gen 5d 7f SCF=(maxcycles=300) Integral
 (NoXCTest, DKHSO) MaxDisk=500GB Pop=Regular IOp(5/15=2) Guess=Read
 ----------------------------------------------------------------------

 ---
 CrH
 ---
 Symbolic Z-matrix:
 Charge =  0 Multiplicity = 6

                         Standard orientation:
 ---------------------------------------------------------------------
 Center     Atomic      Atomic             Coordinates (Angstroms)
 Number     Number       Type             X           Y           Z
 ---------------------------------------------------------------------
      1         24           0        0.000000    0.000000    0.076000
      2          1           0        0.000000    0.000000   -1.824000
 ---------------------------------------------------------------------

 SCF Done:  E(ROHF) =  -1050.19998753     A.U. after   26 cycles
 E2 =    -0.9054070108D+00 EUMP2 =    -0.10511053945456D+04
 CCSD(T)
 CCSD(T)= -0.10511009264D+04

 The electronic state is 6-SG.
 Alpha  occ. eigenvalues -- -222.22596 -26.81912 -22.45312 -22.45312 -22.45305
 Alpha  occ. eigenvalues --   -3.69109  -2.44564  -2.44564  -2.40282  -0.56723
 Alpha  occ. eigenvalues --   -0.56723  -0.53343  -0.53343  -0.38760  -0.26524
 Alpha virt. eigenvalues --    0.01121   0.01121   0.02269   0.02610   0.05341
 Alpha virt. eigenvalues --    0.05341   0.05563   0.07528   0.07528   0.08002
 Alpha virt. eigenvalues --    0.08002   0.09055   0.10451   0.17128   0.20653

 Mulliken charges and spin densities:
               1          2
     1  Cr   0.384722   4.979170
     2  H   -0.384722   0.020830
 Sum of Mulliken charges =   0.00000   5.00000

 Dipole moment (field-independent basis, Debye):
    X=              0.0000    Y=              0.0000    Z=              2.6321  Tot=              2.6321
 Quadrupole moment (field-independent basis, Debye-Ang):
   XX=            -17.4736   YY=            -17.4736   ZZ=            -26.4020
   XY=              0.0000   XZ=              0.0000   YZ=              0.0000

 \\#P ROCCSD(T)=(maxcyc=150, Full)/Gen 5d 7f SCF=(maxcycles=300) Integr
 Normal termination of Gaussian 16 at Tue Feb 13 18:02:22 2018.
