 Gaussian 16, Revision A.03,
 Gaussian 16:  ES64L-G16RevA.03 25-Dec-2016

 ----------------------------------------------------------------------
 #P ROCCSD(T)=(MaxCyc=150, Full)/Gen SCF=(maxcycle=400, vshift=200) Int
 egral(DKHSO, NoXCTest) Pop=Regular MaxDisk=500GB Guess=Read IOp(5/15=2
 )
 ----------------------------------------------------------------------

 ---
 CoH
 ---
 Symbolic Z-matrix:
 Charge =  0 Multiplicity = 3

                         Standard orientation:
 ---------------------------------------------------------------------
 Center     Atomic      Atomic             Coordinates (Angstroms)
 Number     Number       Type             X           Y           Z
 ---------------------------------------------------------------------
      1         27           0        0.000000    0.000000    0.053571
      2          1           0        0.000000    0.000000   -1.446429
 ---------------------------------------------------------------------

 SCF Done:  E(ROHF) =  -1392.35837650     A.U. after   35 cycles
 E2 =    -0.1332921361D+01 EUMP2 =    -0.13936912978590D+04
 CCSD(T)
 CCSD(T)= -0.13936489786D+04

 Unable to determine electronic state:  partially filled degenerate orbitals.
 Alpha  occ. eigenvalues -- -285.58573 -35.27772 -30.04839 -30.04839 -30.04545
 Alpha  occ. eigenvalues --   -4.49370  -2.93052  -2.93031  -2.93031  -0.48976
 Alpha  occ. eigenvalues --   -0.48773  -0.44097  -0.43903  -0.43903  -0.32754
 Alpha virt. eigenvalues --    0.00066   0.02436   0.02436   0.03010   0.04790
 Alpha virt. eigenvalues --    0.06993   0.07343   0.07357   0.07559   0.07559
 Alpha virt. eigenvalues --    0.08635   0.08635   0.10020   0.18601   0.20084

 Mulliken charges and spin densities:
               1          2
     1  Co   0.347198   1.992477
     2  H   -0.347198   0.007523
 Sum of Mulliken charges =  -0.00000   2.00000

 Dipole moment (field-independent basis, Debye):
    X=              0.0000    Y=              0.0000    Z=              4.2780  Tot=              4.2780
 Quadrupole moment (field-independent basis, Debye-Ang):
   XX=            -14.1411   YY=            -14.1411   ZZ=            -17.8829
   XY=              0.0000   XZ=              0.0000   YZ=              0.0000

 \\#P ROCCSD(T)=(MaxCyc=150, Full)/Gen SCF=(maxcycle=400, vshift=200) I
 PMP2-0=-1393.6912979\MP4SDQ=-1393.6456585\CCSD=-1393.6150442\CCSD(T)=-
 Normal termination of Gaussian 16 at Sat Apr 21 22:55:50 2018.
