 Gaussian 16, Revision A.03,
 Gaussian 16:  ES64L-G16RevA.03 25-Dec-2016

 ----------------------------------------------------------------------
 #P ROCCSD(T)=(maxcyc=150, Full)/Gen 5d 7f SCF=(maxcycles=300, NoVarAcc
 , VShift=200) MaxDisk=100GB Pop=Regular Pseudo=Read Guess=Read
 ----------------------------------------------------------------------

 --
 Sc
 --
 Symbolic Z-matrix:
 Charge =  0 Multiplicity = 2

                         Standard orientation:
 ---------------------------------------------------------------------
 Center     Atomic      Atomic             Coordinates (Angstroms)
 Number     Number       Type             X           Y           Z
 ---------------------------------------------------------------------
      1         21           0        0.000000    0.000000    0.000000
 ---------------------------------------------------------------------

 SCF Done:  E(ROHF) =  -46.1562153484     A.U. after   22 cycles
 E2 =    -0.3718622347D+00 EUMP2 =    -0.46528077583158D+02
 CCSD(T)
 CCSD(T)= -0.46565325118D+02

 Unable to determine electronic state:  an orbital has unidentified symmetry.
 Alpha  occ. eigenvalues --   -2.63376  -1.62436  -1.62436  -1.58559  -0.34859
 Alpha  occ. eigenvalues --   -0.21555
 Alpha virt. eigenvalues --    0.01241   0.01338   0.01338   0.02284   0.03912
 Alpha virt. eigenvalues --    0.03921   0.03921   0.03942   0.04006   0.04786
 Alpha virt. eigenvalues --    0.04913   0.04913   0.10125   0.10457   0.10457

 Mulliken charges and spin densities:
               1          2
     1  Sc  -0.000000   1.000000
 Sum of Mulliken charges =  -0.00000   1.00000

 Dipole moment (field-independent basis, Debye):
    X=              0.0000    Y=             -0.0000    Z=              0.0000  Tot=              0.0000
 Quadrupole moment (field-independent basis, Debye-Ang):
   XX=            -23.2880   YY=            -23.2880   ZZ=            -22.9967
   XY=              0.0000   XZ=             -0.0000   YZ=              0.0000

 1\1\GINC-C455-003\SP\ROCCSD(T)-Full\Gen\Sc1(2)\AANNABE\07-Mar-2018\0\\
 #P ROCCSD(T)=(maxcyc=150, Full)/Gen 5d 7f SCF=(maxcycles=300, NoVarAcc
 , VShift=200) MaxDisk=100GB Pop=Regular Pseudo=Read Guess=Read\\Sc\\0,
 2\Sc,0,0.,0.,0.\\Version=ES64L-G16RevA.03\HF=-46.1562153\MP2=-46.52807
 76\MP3=-46.550355\PUHF=-46.1562153\PMP2-0=-46.5280776\MP4SDQ=-46.55033
 07\CCSD=-46.5505739\CCSD(T)=-46.5653251\RMSD=7.925e-09\PG=OH [O(Sc1)]\
 \@

 Normal termination of Gaussian 16 at Wed Mar  7 12:21:23 2018.
