 Gaussian 16, Revision A.03,
 Gaussian 16:  ES64L-G16RevA.03 25-Dec-2016

 ----------------------------------------------------------------------
 #P ROCCSD(T)=(MaxCyc=150, Full)/Gen SCF=(maxcycle=400) Integral(DKHSO,
  NoXCTest) Pop=Regular MaxDisk=500GB Guess=Read IOp(5/15=2)
 ----------------------------------------------------------------------

 ---
 ZnO
 ---
 Symbolic Z-matrix:
 Charge =  0 Multiplicity = 1

                         Standard orientation:
 ---------------------------------------------------------------------
 Center     Atomic      Atomic             Coordinates (Angstroms)
 Number     Number       Type             X           Y           Z
 ---------------------------------------------------------------------
      1         30           0        0.000000    0.000000    0.252632
      2          8           0        0.000000    0.000000   -0.947368
 ---------------------------------------------------------------------

 SCF Done:  E(ROHF) =  -1868.70639806     A.U. after   10 cycles
 E2 =    -0.1948864718D+01 EUMP2 =    -0.18706552627784D+04
 CCSD(T)
 CCSD(T)= -0.18705504859D+04

 The electronic state is 1-SG.
 Alpha  occ. eigenvalues -- -357.65532 -45.44747 -39.24938 -39.24409 -39.24409
 Alpha  occ. eigenvalues --  -20.55366  -5.93230  -4.04590  -3.98899  -3.98899
 Alpha  occ. eigenvalues --   -1.34532  -0.95309  -0.95309  -0.86246  -0.86246
 Alpha  occ. eigenvalues --   -0.82654  -0.46332  -0.46332  -0.37859
 Alpha virt. eigenvalues --   -0.00650   0.02914   0.02914   0.03645   0.04266
 Alpha virt. eigenvalues --    0.09482   0.09482   0.12366   0.17390   0.18078
 Alpha virt. eigenvalues --    0.18585   0.18585   0.18673   0.18673   0.23186

 Mulliken charges and spin densities:
               1          2
     1  Zn   1.003620   0.000000
     2  O   -1.003620   0.000000
 Sum of Mulliken charges =  -0.00000   0.00000

 Dipole moment (field-independent basis, Debye):
    X=              0.0000    Y=              0.0000    Z=              4.3184  Tot=              4.3184
 Quadrupole moment (field-independent basis, Debye-Ang):
   XX=            -18.4643   YY=            -18.4643   ZZ=            -19.4614
   XY=             -0.0000   XZ=              0.0000   YZ=             -0.0000

 P ROCCSD(T)=(MaxCyc=150, Full)/Gen SCF=(maxcycle=400) Integral(DKHSO,
 -0=-1870.6552628\MP4SDQ=-1870.5514619\CCSD=-1870.4981768\CCSD(T)=-1870
 Normal termination of Gaussian 16 at Sat Mar 17 11:25:43 2018.
