 Gaussian 16, Revision A.03,
 Gaussian 16:  ES64L-G16RevA.03 25-Dec-2016

 ----------------------------------------------------------------------
 #P ROCCSD(T)=(MaxCyc=150, Full)/Gen SCF=(maxcycle=400) Integral(DKHSO,
  NoXCTest) Pop=Regular MaxDisk=500GB Guess=Read IOp(5/15=2)
 ----------------------------------------------------------------------

 ---
 ZnO
 ---
 Symbolic Z-matrix:
 Charge =  0 Multiplicity = 1

                         Standard orientation:
 ---------------------------------------------------------------------
 Center     Atomic      Atomic             Coordinates (Angstroms)
 Number     Number       Type             X           Y           Z
 ---------------------------------------------------------------------
      1         30           0        0.000000    0.000000    0.252632
      2          8           0        0.000000    0.000000   -0.947368
 ---------------------------------------------------------------------

 SCF Done:  E(ROHF) =  -1868.69917218     A.U. after   13 cycles
 E2 =    -0.1858520644D+01 EUMP2 =    -0.18705576928209D+04
 CCSD(T)
 CCSD(T)= -0.18704548636D+04

 The electronic state is 1-SG.
 Alpha  occ. eigenvalues -- -357.65531 -45.44773 -39.24967 -39.24438 -39.24438
 Alpha  occ. eigenvalues --  -20.55528  -5.93257  -4.04629  -3.98923  -3.98923
 Alpha  occ. eigenvalues --   -1.34611  -0.95314  -0.95314  -0.86255  -0.86255
 Alpha  occ. eigenvalues --   -0.82679  -0.46319  -0.46319  -0.37883
 Alpha virt. eigenvalues --   -0.00649   0.03252   0.03252   0.04071   0.04531
 Alpha virt. eigenvalues --    0.10901   0.10901   0.13532   0.19427   0.21043
 Alpha virt. eigenvalues --    0.21696   0.21696   0.25748   0.25748   0.30942

 Mulliken charges and spin densities:
               1          2
     1  Zn   1.264373   0.000000
     2  O   -1.264373   0.000000
 Sum of Mulliken charges =  -0.00000   0.00000

 Dipole moment (field-independent basis, Debye):
    X=              0.0000    Y=              0.0000    Z=              4.3317  Tot=              4.3317
 Quadrupole moment (field-independent basis, Debye-Ang):
   XX=            -18.4728   YY=            -18.4728   ZZ=            -19.4720
   XY=              0.0000   XZ=              0.0000   YZ=              0.0000

 P ROCCSD(T)=(MaxCyc=150, Full)/Gen SCF=(maxcycle=400) Integral(DKHSO,
 -0=-1870.5576928\MP4SDQ=-1870.4598526\CCSD=-1870.4053476\CCSD(T)=-1870
 Normal termination of Gaussian 16 at Sat Mar 17 03:57:56 2018.
