 Gaussian 16, Revision A.03,
 Gaussian 16:  ES64L-G16RevA.03 25-Dec-2016

 ----------------------------------------------------------------------
 #P ROCCSD(T)=(maxcyc=150, Full)/Gen 5d 7f SCF=(maxcycles=300, NoVarAcc
 , VShift=200) MaxDisk=100GB Pop=Regular Pseudo=Read Guess=Read IOp(5/1
 5=2)
 ----------------------------------------------------------------------

 --
 Mn
 --
 Symbolic Z-matrix:
 Charge =  0 Multiplicity = 6

                         Standard orientation:
 ---------------------------------------------------------------------
 Center     Atomic      Atomic             Coordinates (Angstroms)
 Number     Number       Type             X           Y           Z
 ---------------------------------------------------------------------
      1         25           0        0.000000    0.000000    0.000000
 ---------------------------------------------------------------------

 SCF Done:  E(ROHF) =  -103.568343544     A.U. after   19 cycles
 E2 =    -0.6060755863D+00 EUMP2 =    -0.10417441913050D+03
 CCSD(T)
 CCSD(T)= -0.10419299549D+03

 The electronic state is 6-A1G.
 Alpha  occ. eigenvalues --   -4.15572  -2.80001  -2.80001  -2.80001  -0.62882
 Alpha  occ. eigenvalues --   -0.62882  -0.62882  -0.62882  -0.62882  -0.26822
 Alpha virt. eigenvalues --    0.01706   0.01706   0.01706   0.02124   0.05597
 Alpha virt. eigenvalues --    0.05597   0.05597   0.05597   0.05597   0.05604
 Alpha virt. eigenvalues --    0.05604   0.05604   0.10427   0.17439   0.17439

 Mulliken charges and spin densities:
               1          2
     1  Mn  -0.000000   5.000000
 Sum of Mulliken charges =  -0.00000   5.00000

 Dipole moment (field-independent basis, Debye):
    X=              0.0000    Y=              0.0000    Z=              0.0000  Tot=              0.0000
 Quadrupole moment (field-independent basis, Debye-Ang):
   XX=            -18.8260   YY=            -18.8260   ZZ=            -18.8260
   XY=             -0.0000   XZ=             -0.0000   YZ=              0.0000

 1\1\GINC-C506-094\SP\ROCCSD(T)-Full\Gen\Mn1(6)\AANNABE\01-Apr-2018\0\\
 #P ROCCSD(T)=(maxcyc=150, Full)/Gen 5d 7f SCF=(maxcycles=300, NoVarAcc
 , VShift=200) MaxDisk=100GB Pop=Regular Pseudo=Read Guess=Read IOp(5/1
 5=2)\\Mn\\0,6\Mn,0,0.,0.,0.\\Version=ES64L-G16RevA.03\State=6-A1G\HF=-
 103.5683435\MP2=-104.1744191\MP3=-104.1719693\PUHF=-103.5683435\PMP2-0
 =-104.1744191\MP4SDQ=-104.1740458\CCSD=-104.1743156\CCSD(T)=-104.19299
 55\RMSD=3.074e-09\PG=OH [O(Mn1)]\\@

 Normal termination of Gaussian 16 at Sun Apr  1 13:07:16 2018.
