 Gaussian 16, Revision A.03,
 Gaussian 16:  ES64L-G16RevA.03 25-Dec-2016

 ----------------------------------------------------------------------
 #P ROCCSD(T)=(maxcyc=150, Full, SaveAmplitudes, ReadAmplitudes)/Gen 5d
  7f SCF=(maxcycles=300, VShift=400) Integral(NoXCTest) MaxDisk=500GB P
 op=Full Pseudo=Read Guess=Read IOp(5/15=2)
 ----------------------------------------------------------------------

 ---
 CrO
 ---
 Symbolic Z-matrix:
 Charge =  0 Multiplicity = 5

                         Standard orientation:
 ---------------------------------------------------------------------
 Center     Atomic      Atomic             Coordinates (Angstroms)
 Number     Number       Type             X           Y           Z
 ---------------------------------------------------------------------
      1         24           0        0.000000    0.000000    0.350000
      2          8           0        0.000000    0.000000   -1.050000
 ---------------------------------------------------------------------

 SCF Done:  E(ROHF) =  -101.671705207     A.U. after   41 cycles
 E2 =    -0.8818110337D+00 EUMP2 =    -0.10255351624076D+03
 CCSD(T)
 CCSD(T)= -0.10257085229D+03

 Unable to determine electronic state:  an orbital has unidentified symmetry.
 Alpha  occ. eigenvalues --   -3.71520  -2.47557  -2.43321  -2.42799  -1.23768
 Alpha  occ. eigenvalues --   -0.65448  -0.57006  -0.53893  -0.53474  -0.52160
 Alpha  occ. eigenvalues --   -0.38690  -0.28445
 Alpha virt. eigenvalues --    0.01076   0.01877   0.02182   0.03057   0.04939
 Alpha virt. eigenvalues --    0.05891   0.06787   0.07670   0.07676   0.07970
 Alpha virt. eigenvalues --    0.08498   0.09197   0.12536   0.15887   0.17919

 Mulliken charges and spin densities:
               1          2
     1  Cr   0.959387   3.803258
     2  O   -0.959387   0.196742
 Sum of Mulliken charges =  -0.00000   4.00000

 Dipole moment (field-independent basis, Debye):
    X=              0.0000    Y=              0.0000    Z=              3.0843  Tot=              3.0843
 Quadrupole moment (field-independent basis, Debye-Ang):
   XX=            -21.0238   YY=            -19.7578   ZZ=            -24.2177
   XY=              0.0000   XZ=              0.0000   YZ=              0.0000

 \\#P ROCCSD(T)=(maxcyc=150, Full, SaveAmplitudes, ReadAmplitudes)/Gen
 95179\CCSD=-102.5258965\CCSD(T)=-102.5708523\RMSD=7.538e-09\PG=C*V [C*
 Normal termination of Gaussian 16 at Thu Apr 19 07:56:26 2018.
