 Gaussian 16, Revision A.03,
 Gaussian 16:  ES64L-G16RevA.03 25-Dec-2016

 ----------------------------------------------------------------------
 #P ROCCSD(T)=(maxcyc=150, Full)/Gen 5d 7f SCF=(maxcycles=300) Integral
 (NoXCTest) MaxDisk=500GB Pop=Regular Pseudo=Read
 ----------------------------------------------------------------------

 ---
 CrH
 ---
 Symbolic Z-matrix:
 Charge =  0 Multiplicity = 6

                         Standard orientation:
 ---------------------------------------------------------------------
 Center     Atomic      Atomic             Coordinates (Angstroms)
 Number     Number       Type             X           Y           Z
 ---------------------------------------------------------------------
      1         24           0        0.000000    0.000000    0.040000
      2          1           0        0.000000    0.000000   -0.960000
 ---------------------------------------------------------------------

 SCF Done:  E(ROHF) =  -86.4413835296     A.U. after   34 cycles
 E2 =    -0.6042394566D+00 EUMP2 =    -0.87045622986233D+02
 CCSD(T)
 CCSD(T)= -0.87056924439D+02

 The electronic state is 6-SG.
 Alpha  occ. eigenvalues --   -3.60696  -2.37736  -2.35163  -2.35163  -0.50109
 Alpha  occ. eigenvalues --   -0.42440  -0.42440  -0.39205  -0.39205  -0.24650
 Alpha virt. eigenvalues --    0.01683   0.01895   0.01895   0.02420   0.06400
 Alpha virt. eigenvalues --    0.06541   0.06541   0.07911   0.07949   0.07949
 Alpha virt. eigenvalues --    0.08070   0.08070   0.09784   0.20622   0.22722

 Mulliken charges and spin densities:
               1          2
     1  Cr   0.395441   4.976109
     2  H   -0.395441   0.023891
 Sum of Mulliken charges =  -0.00000   5.00000

 Dipole moment (field-independent basis, Debye):
    X=              0.0000    Y=              0.0000    Z=              1.9503  Tot=              1.9503
 Quadrupole moment (field-independent basis, Debye-Ang):
   XX=            -16.4586   YY=            -16.4586   ZZ=            -17.4780
   XY=              0.0000   XZ=              0.0000   YZ=              0.0000

 \\#P ROCCSD(T)=(maxcyc=150, Full)/Gen 5d 7f SCF=(maxcycles=300) Integr
 DQ=-87.0373917\CCSD=-87.0357095\CCSD(T)=-87.0569244\RMSD=8.262e-09\PG=
 Normal termination of Gaussian 16 at Mon Feb 12 15:38:09 2018.
