 Gaussian 16, Revision A.03,
 Gaussian 16:  ES64L-G16RevA.03 25-Dec-2016

 ----------------------------------------------------------------------
 #P ROCCSD(T)=(maxcyc=150, Full, SaveAmplitudes, ReadAmplitudes)/Gen 5d
  7f SCF=(maxcycles=300, VShift=400) Integral(NoXCTest) MaxDisk=500GB P
 op=Full Pseudo=Read Guess=Read
 ----------------------------------------------------------------------

 ---
 MnH
 ---
 Symbolic Z-matrix:
 Charge =  0 Multiplicity = 7

                         Standard orientation:
 ---------------------------------------------------------------------
 Center     Atomic      Atomic             Coordinates (Angstroms)
 Number     Number       Type             X           Y           Z
 ---------------------------------------------------------------------
      1         25           0        0.000000    0.000000    0.073077
      2          1           0        0.000000    0.000000   -1.826923
 ---------------------------------------------------------------------

 SCF Done:  E(ROHF) =  -104.254518106     A.U. after   29 cycles
 E2 =    -0.5997847371D+00 EUMP2 =    -0.10485430284305D+03
 CCSD(T)
 CCSD(T)= -0.10487660270D+03

 The electronic state is 7-SG.
 Alpha  occ. eigenvalues --   -4.15086  -2.77908  -2.77908  -2.77665  -0.66247
 Alpha  occ. eigenvalues --   -0.66247  -0.65618  -0.65570  -0.65570  -0.39382
 Alpha  occ. eigenvalues --   -0.26683
 Alpha virt. eigenvalues --    0.01052   0.01052   0.02173   0.02888   0.04941
 Alpha virt. eigenvalues --    0.04941   0.05599   0.05770   0.05770   0.06196
 Alpha virt. eigenvalues --    0.06196   0.09446   0.12584   0.13811   0.18030

 Mulliken charges and spin densities:
               1          2
     1  Mn   0.376150   5.952905
     2  H   -0.376150   0.047095
 Sum of Mulliken charges =  -0.00000   6.00000

 Dipole moment (field-independent basis, Debye):
    X=              0.0000    Y=              0.0000    Z=              2.0479  Tot=              2.0479
 Quadrupole moment (field-independent basis, Debye-Ang):
   XX=            -16.2872   YY=            -16.2872   ZZ=            -27.3781
   XY=              0.0000   XZ=              0.0000   YZ=              0.0000

 \\#P ROCCSD(T)=(maxcyc=150, Full, SaveAmplitudes, ReadAmplitudes)/Gen
 \PUHF=-104.2545181\PMP2-0=-104.8543028\CCSD=-104.8601128\CCSD(T)=-104.
 Normal termination of Gaussian 16 at Wed Apr  4 07:22:44 2018.
