 Gaussian 16, Revision A.03,
 Gaussian 16:  ES64L-G16RevA.03 25-Dec-2016

 ----------------------------------------------------------------------
 #P ROCCSD(T)=(maxcyc=150, Full, SaveAmplitudes, ReadAmplitudes)/Gen 5d
  7f SCF=(maxcycles=300) Integral(NoXCTest) MaxDisk=500GB Pop=Regular P
 seudo=Read Guess=Read
 ----------------------------------------------------------------------

 ---
 TiO
 ---
 Symbolic Z-matrix:
 Charge =  0 Multiplicity = 3

                         Standard orientation:
 ---------------------------------------------------------------------
 Center     Atomic      Atomic             Coordinates (Angstroms)
 Number     Number       Type             X           Y           Z
 ---------------------------------------------------------------------
      1         22           0        0.000000    0.000000    0.373333
      2          8           0        0.000000    0.000000   -1.026667
 ---------------------------------------------------------------------

 SCF Done:  E(ROHF) =  -73.2248295187     A.U. after   26 cycles
 E2 =    -0.7711107040D+00 EUMP2 =    -0.73995940222679D+02
 CCSD(T)
 CCSD(T)= -0.74018373859D+02

 Unable to determine electronic state:  an orbital has unidentified symmetry.
 Alpha  occ. eigenvalues --   -2.94948  -1.92312  -1.85326  -1.85326  -1.15613
 Alpha  occ. eigenvalues --   -0.53718  -0.53718  -0.50521  -0.38880  -0.23238
 Alpha virt. eigenvalues --    0.00961   0.00961   0.02025   0.02301   0.03776
 Alpha virt. eigenvalues --    0.03832   0.03855   0.03855   0.03948   0.04401
 Alpha virt. eigenvalues --    0.04401   0.06772   0.10277   0.10449   0.11387

 Mulliken charges and spin densities:
               1          2
     1  Ti   0.985373   1.978904
     2  O   -0.985373   0.021096
 Sum of Mulliken charges =   0.00000   2.00000

 Dipole moment (field-independent basis, Debye):
    X=              0.0000    Y=              0.0000    Z=              1.8911  Tot=              1.8911
 Quadrupole moment (field-independent basis, Debye-Ang):
   XX=            -21.7675   YY=            -21.7675   ZZ=            -27.7515
   XY=              0.0000   XZ=              0.0000   YZ=              0.0000

 \\#P ROCCSD(T)=(maxcyc=150, Full, SaveAmplitudes, ReadAmplitudes)/Gen
 -0=-73.9959402\CCSD=-73.9790775\CCSD(T)=-74.0183739\RMSD=3.397e-09\PG=
 Normal termination of Gaussian 16 at Fri Mar  9 16:31:37 2018.
