 Gaussian 16, Revision A.03,
 Gaussian 16:  ES64L-G16RevA.03 25-Dec-2016

 ----------------------------------------------------------------------
 #P ROCCSD(T)=(maxcyc=150, Full)/Gen 5d 7f SCF=(maxcycles=300) Integral
 (NoXCTest) MaxDisk=500GB Pop=Regular Pseudo=Read
 ----------------------------------------------------------------------

 ---
 ScH
 ---
 Symbolic Z-matrix:
 Charge =  0 Multiplicity = 1

                         Standard orientation:
 ---------------------------------------------------------------------
 Center     Atomic      Atomic             Coordinates (Angstroms)
 Number     Number       Type             X           Y           Z
 ---------------------------------------------------------------------
      1         21           0        0.000000    0.000000    0.086364
      2          1           0        0.000000    0.000000   -1.813636
 ---------------------------------------------------------------------

 SCF Done:  E(ROHF) =  -46.6591344131     A.U. after   12 cycles
 E2 =    -0.4059593492D+00 EUMP2 =    -0.47065093762282D+02
 CCSD(T)
 CCSD(T)= -0.47111752671D+02

 The electronic state is 1-SG.
 Alpha  occ. eigenvalues --   -2.69808  -1.67475  -1.67475  -1.67337  -0.39215
 Alpha  occ. eigenvalues --   -0.23588
 Alpha virt. eigenvalues --    0.01087   0.01087   0.01445   0.02242   0.03568
 Alpha virt. eigenvalues --    0.03810   0.03810   0.03932   0.03932   0.04442
 Alpha virt. eigenvalues --    0.04442   0.04556   0.07883   0.07883   0.08812

 Mulliken charges and spin densities:
               1          2
     1  Sc   0.332927   0.000000
     2  H   -0.332927   0.000000
 Sum of Mulliken charges =   0.00000   0.00000

 Dipole moment (field-independent basis, Debye):
    X=              0.0000    Y=              0.0000    Z=              1.8366  Tot=              1.8366
 Quadrupole moment (field-independent basis, Debye-Ang):
   XX=            -22.9801   YY=            -22.9801   ZZ=            -27.5516
   XY=              0.0000   XZ=              0.0000   YZ=              0.0000

 P ROCCSD(T)=(maxcyc=150, Full)/Gen 5d 7f SCF=(maxcycles=300) Integral(
 DQ=-47.0931016\CCSD=-47.0930547\CCSD(T)=-47.1117527\RMSD=7.367e-09\PG=
 Normal termination of Gaussian 16 at Tue Feb 13 06:09:07 2018.
