 Gaussian 16, Revision A.03,
 Gaussian 16:  ES64L-G16RevA.03 25-Dec-2016

 ----------------------------------------------------------------------
 #P ROCCSD(T)=(maxcyc=150, Full, SaveAmplitudes, ReadAmplitudes)/Gen 5d
  7f SCF=(maxcycles=300) Integral(NoXCTest) MaxDisk=500GB Pop=Regular P
 seudo=Read Guess=Read
 ----------------------------------------------------------------------

 ---
 CrO
 ---
 Symbolic Z-matrix:
 Charge =  0 Multiplicity = 5

                         Standard orientation:
 ---------------------------------------------------------------------
 Center     Atomic      Atomic             Coordinates (Angstroms)
 Number     Number       Type             X           Y           Z
 ---------------------------------------------------------------------
      1         24           0        0.000000    0.000000    0.400000
      2          8           0        0.000000    0.000000   -1.200000
 ---------------------------------------------------------------------

 SCF Done:  E(ROHF) =  -102.006350191     A.U. after   25 cycles
 E2 =    -0.9306058665D+00 EUMP2 =    -0.10293695605706D+03
 CCSD(T)
 CCSD(T)= -0.10296364772D+03

 Unable to determine electronic state:  an orbital has unidentified symmetry.
 Alpha  occ. eigenvalues --   -3.72081  -2.49598  -2.45736  -2.42236  -1.18005
 Alpha  occ. eigenvalues --   -0.62026  -0.58614  -0.57293  -0.47915  -0.43263
 Alpha  occ. eigenvalues --   -0.38833  -0.31917
 Alpha virt. eigenvalues --   -0.00166   0.00413   0.01511   0.02597   0.03514
 Alpha virt. eigenvalues --    0.03954   0.05306   0.05306   0.05385   0.05797
 Alpha virt. eigenvalues --    0.05848   0.06261   0.10718   0.12471   0.12642

 Mulliken charges and spin densities:
               1          2
     1  Cr   1.070174   3.906163
     2  O   -1.070174   0.093837
 Sum of Mulliken charges =   0.00000   4.00000

 Dipole moment (field-independent basis, Debye):
    X=              0.0000    Y=              0.0000    Z=              6.0280  Tot=              6.0280
 Quadrupole moment (field-independent basis, Debye-Ang):
   XX=            -20.6481   YY=            -19.5503   ZZ=            -24.1713
   XY=              0.0000   XZ=              0.0000   YZ=              0.0000

 \\#P ROCCSD(T)=(maxcyc=150, Full, SaveAmplitudes, ReadAmplitudes)/Gen
 MP2-0=-102.9369561\CCSD=-102.9110212\CCSD(T)=-102.9636477\RMSD=8.011e-
 Normal termination of Gaussian 16 at Mon Mar 12 16:14:14 2018.
