 Gaussian 16, Revision A.03,
 Gaussian 16:  ES64L-G16RevA.03 25-Dec-2016

 ----------------------------------------------------------------------
 #P ROCCSD(T)=(maxcyc=150, Window=(7,0), SaveAmplitudes, ReadAmplitudes
 )/Gen 5d 7f SCF=(maxcycles=300) Integral(NoXCTest, DKHSO) MaxDisk=500G
 B Pop=Regular Guess=Read IOp(5/15=2)
 ----------------------------------------------------------------------

 ---
 ScO
 ---
 Symbolic Z-matrix:
 Charge =  0 Multiplicity = 2

                         Standard orientation:
 ---------------------------------------------------------------------
 Center     Atomic      Atomic             Coordinates (Angstroms)
 Number     Number       Type             X           Y           Z
 ---------------------------------------------------------------------
      1         21           0        0.000000    0.000000    0.331034
      2          8           0        0.000000    0.000000   -0.868966
 ---------------------------------------------------------------------

 SCF Done:  E(ROHF) =  -837.952874469     A.U. after   16 cycles
 E2 =    -0.6327815143D+00 EUMP2 =    -0.83858565598303D+03
 CCSD(T)
 CCSD(T)= -0.83861184378D+03

 The electronic state is 2-SG.
 Alpha  occ. eigenvalues -- -166.70685 -20.60340 -19.12644 -15.55210 -15.55210
 Alpha  occ. eigenvalues --  -15.55050  -2.60061  -1.80826  -1.51607  -1.51607
 Alpha  occ. eigenvalues --   -1.03406  -0.63681  -0.63681  -0.47529  -0.17914
 Alpha virt. eigenvalues --    0.01038   0.01038   0.01787   0.02773   0.03768
 Alpha virt. eigenvalues --    0.03768   0.03800   0.03800   0.03865   0.04926
 Alpha virt. eigenvalues --    0.04926   0.07202   0.11124   0.11124   0.11194

 Mulliken charges and spin densities:
               1          2
     1  Sc   1.094172   1.033237
     2  O   -1.094172  -0.033237
 Sum of Mulliken charges =   0.00000   1.00000

 Dipole moment (field-independent basis, Debye):
    X=              0.0000    Y=              0.0000    Z=             -1.1990  Tot=              1.1990
 Quadrupole moment (field-independent basis, Debye-Ang):
   XX=            -23.9534   YY=            -23.9534   ZZ=            -29.5083
   XY=              0.0000   XZ=              0.0000   YZ=              0.0000

 1\1\GINC-C483-111\SP\ROCCSD(T)-RW\Gen\O1Sc1(2)\AANNABE\20-Feb-2018\0\\
 #P ROCCSD(T)=(maxcyc=150, Window=(7,0), SaveAmplitudes, ReadAmplitudes
 )/Gen 5d 7f SCF=(maxcycles=300) Integral(NoXCTest, DKHSO) MaxDisk=500G
 B Pop=Regular Guess=Read IOp(5/15=2)\\ScO\\0,2\Sc,0,0.,0.,0.\O,0,0.,0.
 ,1.2\\Version=ES64L-G16RevA.03\State=2-SG\HF=-837.9528745\MP2=-838.585
 656\MP3=-838.5802187\PUHF=-837.9528745\PMP2-0=-838.585656\MP4SDQ=-838.
 5892465\CCSD=-838.5861144\CCSD(T)=-838.6118438\RMSD=6.773e-09\PG=C*V [
 C*(O1Sc1)]\\@

 Normal termination of Gaussian 16 at Tue Feb 20 20:25:27 2018.
