 Gaussian 16, Revision A.03,
 Gaussian 16:  ES64L-G16RevA.03 25-Dec-2016

 ----------------------------------------------------------------------
 #P ROCCSD(T)=(maxcyc=150, Full)/Gen 5d 7f SCF=(maxcycles=300) Integral
 (NoXCTest, DKHSO) MaxDisk=500GB Pop=Regular IOp(5/15=2) Guess=Read
 ----------------------------------------------------------------------

 ---
 MnH
 ---
 Symbolic Z-matrix:
 Charge =  0 Multiplicity = 7

                         Standard orientation:
 ---------------------------------------------------------------------
 Center     Atomic      Atomic             Coordinates (Angstroms)
 Number     Number       Type             X           Y           Z
 ---------------------------------------------------------------------
      1         25           0        0.000000    0.000000    0.069231
      2          1           0        0.000000    0.000000   -1.730769
 ---------------------------------------------------------------------

 SCF Done:  E(ROHF) =  -1157.94648335     A.U. after   19 cycles
 E2 =    -0.9587797059D+00 EUMP2 =    -0.11589052630522D+04
 CCSD(T)
 CCSD(T)= -0.11589152030D+04

 The electronic state is 7-SG.
 Alpha  occ. eigenvalues -- -242.50474 -29.60784 -24.96244 -24.96244 -24.96166
 Alpha  occ. eigenvalues --   -4.09713  -2.75029  -2.75029  -2.74796  -0.64616
 Alpha  occ. eigenvalues --   -0.64616  -0.64106  -0.63880  -0.63880  -0.40146
 Alpha  occ. eigenvalues --   -0.26427
 Alpha virt. eigenvalues --    0.01180   0.01180   0.02340   0.03120   0.05661
 Alpha virt. eigenvalues --    0.05661   0.08202   0.08444   0.08444   0.08924
 Alpha virt. eigenvalues --    0.08924   0.09968   0.13751   0.19207   0.22593

 Mulliken charges and spin densities:
               1          2
     1  Mn   0.431306   5.958534
     2  H   -0.431306   0.041466
 Sum of Mulliken charges =  -0.00000   6.00000

 Dipole moment (field-independent basis, Debye):
    X=              0.0000    Y=              0.0000    Z=              1.6483  Tot=              1.6483
 Quadrupole moment (field-independent basis, Debye-Ang):
   XX=            -16.5558   YY=            -16.5558   ZZ=            -27.1237
   XY=              0.0000   XZ=              0.0000   YZ=              0.0000

 \\#P ROCCSD(T)=(maxcyc=150, Full)/Gen 5d 7f SCF=(maxcycles=300) Integr
 Normal termination of Gaussian 16 at Wed Feb 14 22:39:44 2018.
