 Gaussian 16, Revision A.03,
 Gaussian 16:  ES64L-G16RevA.03 25-Dec-2016

 ----------------------------------------------------------------------
 #P ROCCSD(T)=(maxcyc=150, Full, SaveAmplitudes, ReadAmplitudes)/Gen 5d
  7f SCF=(maxcycles=300, VShift=400) Integral(NoXCTest) MaxDisk=500GB P
 op=Full Pseudo=Read Guess=Read IOp(5/15=2)
 ----------------------------------------------------------------------

 ---
 ScH
 ---
 Symbolic Z-matrix:
 Charge =  0 Multiplicity = 1

                         Standard orientation:
 ---------------------------------------------------------------------
 Center     Atomic      Atomic             Coordinates (Angstroms)
 Number     Number       Type             X           Y           Z
 ---------------------------------------------------------------------
      1         21           0        0.000000    0.000000    0.072727
      2          1           0        0.000000    0.000000   -1.527273
 ---------------------------------------------------------------------

 SCF Done:  E(ROHF) =  -46.6689422027     A.U. after   23 cycles
 E2 =    -0.4098261442D+00 EUMP2 =    -0.47078768346895D+02
 CCSD(T)
 CCSD(T)= -0.47122322322D+02

 The electronic state is 1-SG.
 Alpha  occ. eigenvalues --   -2.66336  -1.65427  -1.64948  -1.64948  -0.42999
 Alpha  occ. eigenvalues --   -0.22553
 Alpha virt. eigenvalues --    0.01236   0.01236   0.01641   0.02167   0.03524
 Alpha virt. eigenvalues --    0.03880   0.03880   0.03917   0.03917   0.04665
 Alpha virt. eigenvalues --    0.04665   0.04939   0.09077   0.09077   0.09416

 Mulliken charges and spin densities:
               1          2
     1  Sc   0.397960   0.000000
     2  H   -0.397960   0.000000
 Sum of Mulliken charges =  -0.00000   0.00000

 Dipole moment (field-independent basis, Debye):
    X=              0.0000    Y=              0.0000    Z=              0.9645  Tot=              0.9645
 Quadrupole moment (field-independent basis, Debye-Ang):
   XX=            -23.2550   YY=            -23.2550   ZZ=            -25.3332
   XY=              0.0000   XZ=              0.0000   YZ=              0.0000

 P ROCCSD(T)=(maxcyc=150, Full, SaveAmplitudes, ReadAmplitudes)/Gen 5d
 .1047699\CCSD=-47.1043159\CCSD(T)=-47.1223223\RMSD=8.234e-09\PG=C*V [C
 Normal termination of Gaussian 16 at Thu Apr 19 07:45:05 2018.
