 Gaussian 16, Revision A.03,
 Gaussian 16:  ES64L-G16RevA.03 25-Dec-2016

 ----------------------------------------------------------------------
 #P ROCCSD(T)=(maxcyc=150, Full)/Gen 5d 7f SCF=(maxcycles=300) Integral
 (NoXCTest) MaxDisk=500GB Pop=Regular Pseudo=Read Guess=Read
 ----------------------------------------------------------------------

 ---
 CrH
 ---
 Symbolic Z-matrix:
 Charge =  0 Multiplicity = 6

                         Standard orientation:
 ---------------------------------------------------------------------
 Center     Atomic      Atomic             Coordinates (Angstroms)
 Number     Number       Type             X           Y           Z
 ---------------------------------------------------------------------
      1         24           0        0.000000    0.000000    0.064000
      2          1           0        0.000000    0.000000   -1.536000
 ---------------------------------------------------------------------

 SCF Done:  E(ROHF) =  -86.6919535257     A.U. after   22 cycles
 E2 =    -0.5632980799D+00 EUMP2 =    -0.87255251605514D+02
 CCSD(T)
 CCSD(T)= -0.87299039853D+02

 The electronic state is 6-SG.
 Alpha  occ. eigenvalues --   -3.70799  -2.46289  -2.46289  -2.41964  -0.53095
 Alpha  occ. eigenvalues --   -0.53095  -0.50017  -0.50017  -0.41640  -0.25820
 Alpha virt. eigenvalues --    0.01332   0.01332   0.01977   0.02312   0.04607
 Alpha virt. eigenvalues --    0.05123   0.05123   0.05368   0.05368   0.05667
 Alpha virt. eigenvalues --    0.05667   0.06622   0.09546   0.12583   0.16817

 Mulliken charges and spin densities:
               1          2
     1  Cr   0.333117   4.981761
     2  H   -0.333117   0.018239
 Sum of Mulliken charges =   0.00000   5.00000

 Dipole moment (field-independent basis, Debye):
    X=              0.0000    Y=              0.0000    Z=              2.0488  Tot=              2.0488
 Quadrupole moment (field-independent basis, Debye-Ang):
   XX=            -16.9728   YY=            -16.9728   ZZ=            -23.1081
   XY=              0.0000   XZ=              0.0000   YZ=              0.0000

 \\#P ROCCSD(T)=(maxcyc=150, Full)/Gen 5d 7f SCF=(maxcycles=300) Integr
 7.2552516\MP4SDQ=-87.2666211\CCSD=-87.2807797\CCSD(T)=-87.2990399\RMSD
 Normal termination of Gaussian 16 at Tue Feb 13 05:09:54 2018.
