 Gaussian 16, Revision A.03,
 Gaussian 16:  ES64L-G16RevA.03 25-Dec-2016

 ----------------------------------------------------------------------
 #P ROCCSD(T)=(maxcyc=150, Full, SaveAmplitudes, ReadAmplitudes)/Gen 5d
  7f SCF=(maxcycles=300, VShift=400) Integral(NoXCTest) MaxDisk=500GB P
 op=Full Pseudo=Read Guess=Read IOp(5/15=2)
 ----------------------------------------------------------------------

 ---
 CrO
 ---
 Symbolic Z-matrix:
 Charge =  0 Multiplicity = 5

                         Standard orientation:
 ---------------------------------------------------------------------
 Center     Atomic      Atomic             Coordinates (Angstroms)
 Number     Number       Type             X           Y           Z
 ---------------------------------------------------------------------
      1         24           0        0.000000    0.000000    0.325000
      2          8           0        0.000000    0.000000   -0.975000
 ---------------------------------------------------------------------

 SCF Done:  E(ROHF) =  -101.384333509     A.U. after   54 cycles
 E2 =    -0.8806496132D+00 EUMP2 =    -0.10226498312265D+03
 CCSD(T)
 CCSD(T)= -0.10227696850D+03

 Unable to determine electronic state:  an orbital has unidentified symmetry.
 Alpha  occ. eigenvalues --   -3.73067  -2.44540  -2.43707  -2.40324  -1.25297
 Alpha  occ. eigenvalues --   -0.69018  -0.60044  -0.59700  -0.51317  -0.50963
 Alpha  occ. eigenvalues --   -0.35280  -0.27150
 Alpha virt. eigenvalues --    0.01369   0.02310   0.02465   0.02880   0.05290
 Alpha virt. eigenvalues --    0.06617   0.07323   0.07741   0.07745   0.07888
 Alpha virt. eigenvalues --    0.08741   0.09850   0.12238   0.17228   0.19453

 Mulliken charges and spin densities:
               1          2
     1  Cr   0.903656   3.765857
     2  O   -0.903656   0.234143
 Sum of Mulliken charges =  -0.00000   4.00000

 Dipole moment (field-independent basis, Debye):
    X=              0.0000    Y=              0.0000    Z=              1.7662  Tot=              1.7662
 Quadrupole moment (field-independent basis, Debye-Ang):
   XX=            -21.5255   YY=            -19.8277   ZZ=            -23.5886
   XY=              0.0000   XZ=              0.0000   YZ=              0.0000

 \\#P ROCCSD(T)=(maxcyc=150, Full, SaveAmplitudes, ReadAmplitudes)/Gen
 528941\CCSD=-102.2352324\CCSD(T)=-102.2769685\RMSD=6.971e-09\PG=C*V [C
 Normal termination of Gaussian 16 at Fri Apr  6 11:27:10 2018.
