 Gaussian 16, Revision A.03,
 Gaussian 16:  ES64L-G16RevA.03 25-Dec-2016

 ----------------------------------------------------------------------
 #P ROCCSD(T)=(maxcyc=150, Full, SaveAmplitudes, ReadAmplitudes)/Gen 5d
  7f SCF=(maxcycles=300) Integral(NoXCTest) MaxDisk=500GB Pop=Regular P
 seudo=Read Guess=Read
 ----------------------------------------------------------------------

 ---
 ScO
 ---
 Symbolic Z-matrix:
 Charge =  0 Multiplicity = 2

                         Standard orientation:
 ---------------------------------------------------------------------
 Center     Atomic      Atomic             Coordinates (Angstroms)
 Number     Number       Type             X           Y           Z
 ---------------------------------------------------------------------
      1         21           0        0.000000    0.000000    0.468966
      2          8           0        0.000000    0.000000   -1.231034
 ---------------------------------------------------------------------

 SCF Done:  E(ROHF) =  -61.9655223505     A.U. after   15 cycles
 E2 =    -0.7112848394D+00 EUMP2 =    -0.62676807189941D+02
 CCSD(T)
 CCSD(T)= -0.62704291096D+02

 The electronic state is 2-SG.
 Alpha  occ. eigenvalues --   -2.66516  -1.66643  -1.63690  -1.63690  -1.12606
 Alpha  occ. eigenvalues --   -0.42720  -0.41114  -0.41114  -0.25265
 Alpha virt. eigenvalues --   -0.00051  -0.00051   0.01309   0.02038   0.02701
 Alpha virt. eigenvalues --    0.02701   0.02974   0.02974   0.03228   0.03228
 Alpha virt. eigenvalues --    0.03453   0.04604   0.06764   0.06764   0.09312

 Mulliken charges and spin densities:
               1          2
     1  Sc   1.268535   0.987316
     2  O   -1.268535   0.012684
 Sum of Mulliken charges =  -0.00000   1.00000

 Dipole moment (field-independent basis, Debye):
    X=              0.0000    Y=              0.0000    Z=              4.8541  Tot=              4.8541
 Quadrupole moment (field-independent basis, Debye-Ang):
   XX=            -21.8465   YY=            -21.8465   ZZ=            -32.5613
   XY=              0.0000   XZ=              0.0000   YZ=              0.0000

 \\#P ROCCSD(T)=(maxcyc=150, Full, SaveAmplitudes, ReadAmplitudes)/Gen
 655224\PMP2-0=-62.6768072\CCSD=-62.6618621\CCSD(T)=-62.7042911\RMSD=1.
 Normal termination of Gaussian 16 at Mon Mar  5 19:38:02 2018.
