 Gaussian 16, Revision A.03,
 Gaussian 16:  ES64L-G16RevA.03 25-Dec-2016

 ----------------------------------------------------------------------
 #P ROCCSD(T)=(maxcyc=150, Full, SaveAmplitudes, ReadAmplitudes)/Gen 5d
  7f SCF=(maxcycles=300) Integral(NoXCTest) MaxDisk=500GB Pop=Regular P
 seudo=Read Guess=Read
 ----------------------------------------------------------------------

 ---
 TiO
 ---
 Symbolic Z-matrix:
 Charge =  0 Multiplicity = 3

                         Standard orientation:
 ---------------------------------------------------------------------
 Center     Atomic      Atomic             Coordinates (Angstroms)
 Number     Number       Type             X           Y           Z
 ---------------------------------------------------------------------
      1         22           0        0.000000    0.000000    0.426667
      2          8           0        0.000000    0.000000   -1.173333
 ---------------------------------------------------------------------

 SCF Done:  E(ROHF) =  -73.3138251804     A.U. after   20 cycles
 E2 =    -0.7744912386D+00 EUMP2 =    -0.74088316418974D+02
 CCSD(T)
 CCSD(T)= -0.74115014867D+02

 Unable to determine electronic state:  an orbital has unidentified symmetry.
 Alpha  occ. eigenvalues --   -3.00081  -1.91133  -1.91133  -1.90118  -1.16609
 Alpha  occ. eigenvalues --   -0.46813  -0.45251  -0.45251  -0.45217  -0.26210
 Alpha virt. eigenvalues --    0.00364   0.00364   0.01459   0.02345   0.03661
 Alpha virt. eigenvalues --    0.03661   0.03698   0.03770   0.04170   0.04170
 Alpha virt. eigenvalues --    0.04193   0.05314   0.09085   0.10362   0.11571

 Mulliken charges and spin densities:
               1          2
     1  Ti   1.060648   1.970101
     2  O   -1.060648   0.029899
 Sum of Mulliken charges =  -0.00000   2.00000

 Dipole moment (field-independent basis, Debye):
    X=              0.0000    Y=              0.0000    Z=              4.1291  Tot=              4.1291
 Quadrupole moment (field-independent basis, Debye-Ang):
   XX=            -21.5370   YY=            -21.5370   ZZ=            -29.0988
   XY=              0.0000   XZ=              0.0000   YZ=              0.0000

 \\#P ROCCSD(T)=(maxcyc=150, Full, SaveAmplitudes, ReadAmplitudes)/Gen
 -0=-74.0883164\CCSD=-74.0690544\CCSD(T)=-74.1150149\RMSD=5.582e-09\PG=
 Normal termination of Gaussian 16 at Fri Mar  9 16:33:43 2018.
