 Gaussian 16, Revision A.03,
 Gaussian 16:  ES64L-G16RevA.03 25-Dec-2016

 ----------------------------------------------------------------------
 #P ROCCSD(T)=(maxcyc=150, Full, SaveAmplitudes, ReadAmplitudes)/Gen 5d
  7f SCF=(maxcycles=300) Integral(NoXCTest) MaxDisk=500GB Pop=Regular P
 seudo=Read Guess=Read IOp(5/15=2)
 ----------------------------------------------------------------------

 ---
 CrO
 ---
 Symbolic Z-matrix:
 Charge =  0 Multiplicity = 5

                         Standard orientation:
 ---------------------------------------------------------------------
 Center     Atomic      Atomic             Coordinates (Angstroms)
 Number     Number       Type             X           Y           Z
 ---------------------------------------------------------------------
      1         24           0        0.000000    0.000000    0.400000
      2          8           0        0.000000    0.000000   -1.200000
 ---------------------------------------------------------------------

 SCF Done:  E(ROHF) =  -102.003828520     A.U. after   27 cycles
 E2 =    -0.8922604315D+00 EUMP2 =    -0.10289608895175D+03
 CCSD(T)
 CCSD(T)= -0.10292540019D+03

 Unable to determine electronic state:  an orbital has unidentified symmetry.
 Alpha  occ. eigenvalues --   -3.72159  -2.49651  -2.45792  -2.42295  -1.18073
 Alpha  occ. eigenvalues --   -0.62046  -0.58631  -0.57309  -0.47940  -0.43283
 Alpha  occ. eigenvalues --   -0.38849  -0.31921
 Alpha virt. eigenvalues --   -0.00118   0.00447   0.01655   0.03101   0.03902
 Alpha virt. eigenvalues --    0.04385   0.05988   0.07560   0.07575   0.08047
 Alpha virt. eigenvalues --    0.08101   0.08437   0.13135   0.13322   0.15661

 Mulliken charges and spin densities:
               1          2
     1  Cr   1.084614   3.862638
     2  O   -1.084614   0.137362
 Sum of Mulliken charges =  -0.00000   4.00000

 Dipole moment (field-independent basis, Debye):
    X=              0.0000    Y=              0.0000    Z=              6.0296  Tot=              6.0296
 Quadrupole moment (field-independent basis, Debye-Ang):
   XX=            -20.6539   YY=            -19.5537   ZZ=            -24.1907
   XY=              0.0000   XZ=              0.0000   YZ=              0.0000

 \\#P ROCCSD(T)=(maxcyc=150, Full, SaveAmplitudes, ReadAmplitudes)/Gen
 =-102.8746657\CCSD(T)=-102.9254002\RMSD=8.325e-09\PG=C*V [C*(O1Cr1)]\\
 Normal termination of Gaussian 16 at Mon Mar 12 14:33:46 2018.
