 Gaussian 16, Revision A.03,
 Gaussian 16:  ES64L-G16RevA.03 25-Dec-2016

 ----------------------------------------------------------------------
 #P ROCCSD(T)=(MaxCyc=150, Full)/Gen SCF=(maxcycle=400) Integral(DKHSO,
  NoXCTest) Pop=Regular MaxDisk=500GB Guess=Read IOp(5/15=2)
 ----------------------------------------------------------------------

 ---
 ZnO
 ---
 Symbolic Z-matrix:
 Charge =  0 Multiplicity = 1

                         Standard orientation:
 ---------------------------------------------------------------------
 Center     Atomic      Atomic             Coordinates (Angstroms)
 Number     Number       Type             X           Y           Z
 ---------------------------------------------------------------------
      1         30           0        0.000000    0.000000    0.400000
      2          8           0        0.000000    0.000000   -1.500000
 ---------------------------------------------------------------------

 SCF Done:  E(ROHF) =  -1869.07285429     A.U. after   11 cycles
 E2 =    -0.1892848486D+01 EUMP2 =    -0.18709657027767D+04
 CCSD(T)
 CCSD(T)= -0.18708955326D+04

 The electronic state is 1-SG.
 Alpha  occ. eigenvalues -- -357.61863 -45.38411 -39.18755 -39.18755 -39.18559
 Alpha  occ. eigenvalues --  -20.54784  -5.85286  -3.93203  -3.93203  -3.93169
 Alpha  occ. eigenvalues --   -1.15236  -0.82041  -0.82041  -0.81860  -0.81860
 Alpha  occ. eigenvalues --   -0.80866  -0.42840  -0.42840  -0.35535
 Alpha virt. eigenvalues --   -0.04232   0.02283   0.02283   0.02521   0.04081
 Alpha virt. eigenvalues --    0.07422   0.07422   0.11738   0.16587   0.16949
 Alpha virt. eigenvalues --    0.17820   0.17820   0.19798   0.19798   0.23213

 Mulliken charges and spin densities:
               1          2
     1  Zn   0.752117   0.000000
     2  O   -0.752117   0.000000
 Sum of Mulliken charges =  -0.00000   0.00000

 Dipole moment (field-independent basis, Debye):
    X=              0.0000    Y=              0.0000    Z=              6.1552  Tot=              6.1552
 Quadrupole moment (field-independent basis, Debye-Ang):
   XX=            -18.7781   YY=            -18.7781   ZZ=            -22.2657
   XY=              0.0000   XZ=              0.0000   YZ=              0.0000

 P ROCCSD(T)=(MaxCyc=150, Full)/Gen SCF=(maxcycle=400) Integral(DKHSO,
 =-1870.9657028\MP4SDQ=-1870.8840391\CCSD=-1870.8427588\CCSD(T)=-1870.8
 Normal termination of Gaussian 16 at Sat Mar 17 05:49:20 2018.
