 Gaussian 16, Revision A.03,
 Gaussian 16:  ES64L-G16RevA.03 25-Dec-2016

 ----------------------------------------------------------------------
 #P ROCCSD(T)=(MaxCyc=150, Full)/Gen SCF=(maxcycle=400) Integral(DKHSO,
  NoXCTest) Pop=Regular MaxDisk=500GB Guess=Read IOp(5/15=2)
 ----------------------------------------------------------------------

 ---
 ZnO
 ---
 Symbolic Z-matrix:
 Charge =  0 Multiplicity = 1

                         Standard orientation:
 ---------------------------------------------------------------------
 Center     Atomic      Atomic             Coordinates (Angstroms)
 Number     Number       Type             X           Y           Z
 ---------------------------------------------------------------------
      1         30           0        0.000000    0.000000    0.400000
      2          8           0        0.000000    0.000000   -1.500000
 ---------------------------------------------------------------------

 SCF Done:  E(ROHF) =  -1869.06653570     A.U. after   13 cycles
 E2 =    -0.1804289670D+01 EUMP2 =    -0.18708708253697D+04
 CCSD(T)
 CCSD(T)= -0.18708028884D+04

 The electronic state is 1-SG.
 Alpha  occ. eigenvalues -- -357.61871 -45.38444 -39.18792 -39.18792 -39.18596
 Alpha  occ. eigenvalues --  -20.54934  -5.85312  -3.93229  -3.93229  -3.93200
 Alpha  occ. eigenvalues --   -1.15296  -0.82057  -0.82057  -0.81872  -0.81872
 Alpha  occ. eigenvalues --   -0.80886  -0.42815  -0.42815  -0.35557
 Alpha virt. eigenvalues --   -0.04247   0.02486   0.02486   0.02758   0.04528
 Alpha virt. eigenvalues --    0.08481   0.08481   0.13165   0.17420   0.21510
 Alpha virt. eigenvalues --    0.22851   0.22851   0.24707   0.24707   0.30131

 Mulliken charges and spin densities:
               1          2
     1  Zn   0.796221   0.000000
     2  O   -0.796221   0.000000
 Sum of Mulliken charges =  -0.00000   0.00000

 Dipole moment (field-independent basis, Debye):
    X=              0.0000    Y=              0.0000    Z=              6.1695  Tot=              6.1695
 Quadrupole moment (field-independent basis, Debye-Ang):
   XX=            -18.7919   YY=            -18.7919   ZZ=            -22.2634
   XY=              0.0000   XZ=              0.0000   YZ=              0.0000

 P ROCCSD(T)=(MaxCyc=150, Full)/Gen SCF=(maxcycle=400) Integral(DKHSO,
 -0=-1870.8708254\MP4SDQ=-1870.7947339\CCSD=-1870.7528583\CCSD(T)=-1870
 Normal termination of Gaussian 16 at Sat Mar 17 04:02:08 2018.
