 Gaussian 16, Revision A.03,
 Gaussian 16:  ES64L-G16RevA.03 25-Dec-2016

 ----------------------------------------------------------------------
 #P ROCCSD(T)=(maxcyc=150, Full, SaveAmplitudes, ReadAmplitudes)/Gen 5d
  7f SCF=(maxcycles=300) Integral(NoXCTest) MaxDisk=500GB Pop=Regular P
 seudo=Read Guess=Read IOp(5/15=2)
 ----------------------------------------------------------------------

 ---
 TiO
 ---
 Symbolic Z-matrix:
 Charge =  0 Multiplicity = 3

                         Standard orientation:
 ---------------------------------------------------------------------
 Center     Atomic      Atomic             Coordinates (Angstroms)
 Number     Number       Type             X           Y           Z
 ---------------------------------------------------------------------
      1         22           0        0.000000    0.000000    0.373333
      2          8           0        0.000000    0.000000   -1.026667
 ---------------------------------------------------------------------

 SCF Done:  E(ROHF) =  -73.4842437058     A.U. after   23 cycles
 E2 =    -0.7394643514D+00 EUMP2 =    -0.74223708057232D+02
 CCSD(T)
 CCSD(T)= -0.74248963290D+02

 Unable to determine electronic state:  an orbital has unidentified symmetry.
 Alpha  occ. eigenvalues --   -2.98644  -1.91697  -1.84664  -1.84664  -1.16338
 Alpha  occ. eigenvalues --   -0.53403  -0.53403  -0.50326  -0.39221  -0.23456
 Alpha virt. eigenvalues --    0.01025   0.01025   0.02167   0.02546   0.04652
 Alpha virt. eigenvalues --    0.04652   0.05006   0.05119   0.05286   0.05824
 Alpha virt. eigenvalues --    0.05824   0.08105   0.11481   0.12983   0.14410

 Mulliken charges and spin densities:
               1          2
     1  Ti   0.794786   2.023107
     2  O   -0.794786  -0.023107
 Sum of Mulliken charges =  -0.00000   2.00000

 Dipole moment (field-independent basis, Debye):
    X=              0.0000    Y=              0.0000    Z=              2.0098  Tot=              2.0098
 Quadrupole moment (field-independent basis, Debye-Ang):
   XX=            -21.5975   YY=            -21.5975   ZZ=            -27.5128
   XY=              0.0000   XZ=              0.0000   YZ=              0.0000

 \\#P ROCCSD(T)=(maxcyc=150, Full, SaveAmplitudes, ReadAmplitudes)/Gen
 .2110746\CCSD(T)=-74.2489633\RMSD=2.705e-09\PG=C*V [C*(O1Ti1)]\\@
 Normal termination of Gaussian 16 at Mon Mar 12 14:22:16 2018.
