 Gaussian 16, Revision A.03,
 Gaussian 16:  ES64L-G16RevA.03 25-Dec-2016

 ----------------------------------------------------------------------
 #P ROCCSD(T)=(maxcyc=150, Full, SaveAmplitudes, ReadAmplitudes)/Gen 5d
  7f SCF=(maxcycles=300) Integral(NoXCTest) MaxDisk=500GB Pop=Regular P
 seudo=Read Guess=Read IOp(5/15=2)
 ----------------------------------------------------------------------

 ---
 CrH
 ---
 Symbolic Z-matrix:
 Charge =  0 Multiplicity = 6

                         Standard orientation:
 ---------------------------------------------------------------------
 Center     Atomic      Atomic             Coordinates (Angstroms)
 Number     Number       Type             X           Y           Z
 ---------------------------------------------------------------------
      1         24           0        0.000000    0.000000    0.044000
      2          1           0        0.000000    0.000000   -1.056000
 ---------------------------------------------------------------------

 SCF Done:  E(ROHF) =  -86.2115773910     A.U. after   36 cycles
 E2 =    -0.5762572666D+00 EUMP2 =    -0.86787834657599D+02
 CCSD(T)
 CCSD(T)= -0.86806405787D+02

 The electronic state is 6-SG.
 Alpha  occ. eigenvalues --   -3.76048  -2.47413  -2.47345  -2.47345  -0.48831
 Alpha  occ. eigenvalues --   -0.41055  -0.41055  -0.38231  -0.38231  -0.25865
 Alpha virt. eigenvalues --    0.01741   0.01741   0.01908   0.02316   0.06114
 Alpha virt. eigenvalues --    0.06114   0.06229   0.07955   0.07955   0.08080
 Alpha virt. eigenvalues --    0.08107   0.08107   0.09722   0.19879   0.21859

 Mulliken charges and spin densities:
               1          2
     1  Cr   0.694611   4.975081
     2  H   -0.694611   0.024919
 Sum of Mulliken charges =  -0.00000   5.00000

 Dipole moment (field-independent basis, Debye):
    X=              0.0000    Y=              0.0000    Z=              1.6520  Tot=              1.6520
 Quadrupole moment (field-independent basis, Debye-Ang):
   XX=            -16.8936   YY=            -16.8936   ZZ=            -18.3808
   XY=              0.0000   XZ=              0.0000   YZ=              0.0000

 \\#P ROCCSD(T)=(maxcyc=150, Full, SaveAmplitudes, ReadAmplitudes)/Gen
 92\CCSD=-86.7865172\CCSD(T)=-86.8064058\RMSD=5.554e-09\PG=C*V [C*(H1Cr
 Normal termination of Gaussian 16 at Sun Feb 25 19:33:51 2018.
