 Gaussian 16, Revision A.03,
 Gaussian 16:  ES64L-G16RevA.03 25-Dec-2016

 ----------------------------------------------------------------------
 #P ROCCSD(T)=(maxcyc=150, Full)/Gen 5d 7f SCF=(maxcycles=300) Integral
 (NoXCTest) MaxDisk=500GB Pop=Regular Pseudo=Read IOp(5/15=2) Guess=Rea
 d
 ----------------------------------------------------------------------

 ---
 ScH
 ---
 Symbolic Z-matrix:
 Charge =  0 Multiplicity = 1

                         Standard orientation:
 ---------------------------------------------------------------------
 Center     Atomic      Atomic             Coordinates (Angstroms)
 Number     Number       Type             X           Y           Z
 ---------------------------------------------------------------------
      1         21           0        0.000000    0.000000    0.068182
      2          1           0        0.000000    0.000000   -1.431818
 ---------------------------------------------------------------------

 SCF Done:  E(ROHF) =  -46.7705728491     A.U. after   11 cycles
 E2 =    -0.4157912635D+00 EUMP2 =    -0.47186364112581D+02
 CCSD(T)
 CCSD(T)= -0.47228847410D+02

 The electronic state is 1-SG.
 Alpha  occ. eigenvalues --   -2.72062  -1.63693  -1.62724  -1.62724  -0.44220
 Alpha  occ. eigenvalues --   -0.22267
 Alpha virt. eigenvalues --    0.01270   0.01270   0.01669   0.02158   0.03509
 Alpha virt. eigenvalues --    0.03898   0.03898   0.03914   0.03914   0.04723
 Alpha virt. eigenvalues --    0.04723   0.05033   0.09325   0.09478   0.09478

 Mulliken charges and spin densities:
               1          2
     1  Sc   0.433554   0.000000
     2  H   -0.433554   0.000000
 Sum of Mulliken charges =  -0.00000   0.00000

 Dipole moment (field-independent basis, Debye):
    X=              0.0000    Y=              0.0000    Z=              0.7231  Tot=              0.7231
 Quadrupole moment (field-independent basis, Debye-Ang):
   XX=            -23.3402   YY=            -23.3402   ZZ=            -24.6921
   XY=              0.0000   XZ=              0.0000   YZ=              0.0000

 P ROCCSD(T)=(maxcyc=150, Full)/Gen 5d 7f SCF=(maxcycles=300) Integral(
 MP2-0=-47.1863641\MP4SDQ=-47.2113865\CCSD=-47.2109063\CCSD(T)=-47.2288
 Normal termination of Gaussian 16 at Tue Feb 13 23:44:09 2018.
