 Gaussian 16, Revision A.03,
 Gaussian 16:  ES64L-G16RevA.03 25-Dec-2016

 ----------------------------------------------------------------------
 #P ROCCSD(T)=(maxcyc=150, Full, SaveAmplitudes, ReadAmplitudes)/Gen 5d
  7f SCF=(maxcycles=300) Integral(NoXCTest) MaxDisk=500GB Pop=Regular P
 seudo=Read Guess=Read
 ----------------------------------------------------------------------

 ---
 CrO
 ---
 Symbolic Z-matrix:
 Charge =  0 Multiplicity = 5

                         Standard orientation:
 ---------------------------------------------------------------------
 Center     Atomic      Atomic             Coordinates (Angstroms)
 Number     Number       Type             X           Y           Z
 ---------------------------------------------------------------------
      1         24           0        0.000000    0.000000    0.325000
      2          8           0        0.000000    0.000000   -0.975000
 ---------------------------------------------------------------------

 SCF Done:  E(ROHF) =  -101.907748874     A.U. after   22 cycles
 E2 =    -0.9417075634D+00 EUMP2 =    -0.10284945643699D+03
 CCSD(T)
 CCSD(T)= -0.10285973635D+03

 Unable to determine electronic state:  an orbital has unidentified symmetry.
 Alpha  occ. eigenvalues --   -3.67324  -2.44268  -2.42464  -2.39982  -1.23864
 Alpha  occ. eigenvalues --   -0.68663  -0.59888  -0.59623  -0.51332  -0.50936
 Alpha  occ. eigenvalues --   -0.35469  -0.27317
 Alpha virt. eigenvalues --    0.01247   0.01960   0.02295   0.02632   0.04690
 Alpha virt. eigenvalues --    0.05005   0.05419   0.05419   0.05520   0.05679
 Alpha virt. eigenvalues --    0.07631   0.07972   0.10332   0.13773   0.14643

 Mulliken charges and spin densities:
               1          2
     1  Cr   0.902587   3.863874
     2  O   -0.902587   0.136126
 Sum of Mulliken charges =  -0.00000   4.00000

 Dipole moment (field-independent basis, Debye):
    X=              0.0000    Y=              0.0000    Z=              1.7433  Tot=              1.7433
 Quadrupole moment (field-independent basis, Debye-Ang):
   XX=            -21.4129   YY=            -19.6710   ZZ=            -23.5918
   XY=              0.0000   XZ=              0.0000   YZ=              0.0000

 \\#P ROCCSD(T)=(maxcyc=150, Full, SaveAmplitudes, ReadAmplitudes)/Gen
 MP2-0=-102.8494564\CCSD=-102.8150015\CCSD(T)=-102.8597364\RMSD=7.146e-
 Normal termination of Gaussian 16 at Tue Mar 13 03:33:28 2018.
