 Gaussian 16, Revision A.03,
 Gaussian 16:  ES64L-G16RevA.03 25-Dec-2016

 ----------------------------------------------------------------------
 #P ROCCSD(T)=(maxcyc=150, Full, SaveAmplitudes, ReadAmplitudes)/Gen 5d
  7f SCF=(maxcycles=300) Integral(NoXCTest) MaxDisk=500GB Pop=Regular P
 seudo=Read Guess=Read
 ----------------------------------------------------------------------

 ---
 ScO
 ---
 Symbolic Z-matrix:
 Charge =  0 Multiplicity = 2

                         Standard orientation:
 ---------------------------------------------------------------------
 Center     Atomic      Atomic             Coordinates (Angstroms)
 Number     Number       Type             X           Y           Z
 ---------------------------------------------------------------------
      1         21           0        0.000000    0.000000    0.496552
      2          8           0        0.000000    0.000000   -1.303448
 ---------------------------------------------------------------------

 SCF Done:  E(ROHF) =  -61.9515729585     A.U. after   17 cycles
 E2 =    -0.7162145618D+00 EUMP2 =    -0.62667787520299D+02
 CCSD(T)
 CCSD(T)= -0.62696751245D+02

 The electronic state is 2-SG.
 Alpha  occ. eigenvalues --   -2.69284  -1.67026  -1.65872  -1.65872  -1.11969
 Alpha  occ. eigenvalues --   -0.41541  -0.38610  -0.38610  -0.26420
 Alpha virt. eigenvalues --   -0.00438  -0.00438   0.01069   0.01950   0.02661
 Alpha virt. eigenvalues --    0.02661   0.02785   0.02785   0.03225   0.03225
 Alpha virt. eigenvalues --    0.03601   0.04081   0.06098   0.06098   0.09112

 Mulliken charges and spin densities:
               1          2
     1  Sc   1.252570   0.984889
     2  O   -1.252570   0.015111
 Sum of Mulliken charges =  -0.00000   1.00000

 Dipole moment (field-independent basis, Debye):
    X=              0.0000    Y=              0.0000    Z=              5.7692  Tot=              5.7692
 Quadrupole moment (field-independent basis, Debye-Ang):
   XX=            -21.8801   YY=            -21.8801   ZZ=            -33.2834
   XY=              0.0000   XZ=              0.0000   YZ=              0.0000

 \\#P ROCCSD(T)=(maxcyc=150, Full, SaveAmplitudes, ReadAmplitudes)/Gen
 1573\PMP2-0=-62.6677875\CCSD=-62.6508905\CCSD(T)=-62.6967512\RMSD=3.01
 Normal termination of Gaussian 16 at Wed Mar  7 13:00:54 2018.
