 Gaussian 16, Revision A.03,
 Gaussian 16:  ES64L-G16RevA.03 25-Dec-2016

 ----------------------------------------------------------------------
 #P ROCCSD(T)=(maxcyc=150, Full, SaveAmplitudes, ReadAmplitudes)/Gen 5d
  7f SCF=(maxcycles=300) Integral(NoXCTest) MaxDisk=500GB Pop=Regular P
 seudo=Read Guess=Read
 ----------------------------------------------------------------------

 ---
 TiO
 ---
 Symbolic Z-matrix:
 Charge =  0 Multiplicity = 3

                         Standard orientation:
 ---------------------------------------------------------------------
 Center     Atomic      Atomic             Coordinates (Angstroms)
 Number     Number       Type             X           Y           Z
 ---------------------------------------------------------------------
      1         22           0        0.000000    0.000000    0.320000
      2          8           0        0.000000    0.000000   -0.880000
 ---------------------------------------------------------------------

 SCF Done:  E(ROHF) =  -73.2372714285     A.U. after   20 cycles
 E2 =    -0.7631036911D+00 EUMP2 =    -0.74000375119584D+02
 CCSD(T)
 CCSD(T)= -0.74024772164D+02

 Unable to determine electronic state:  an orbital has unidentified symmetry.
 Alpha  occ. eigenvalues --   -2.97817  -2.00070  -1.79155  -1.79155  -1.12071
 Alpha  occ. eigenvalues --   -0.65474  -0.65474  -0.54260  -0.32320  -0.20055
 Alpha virt. eigenvalues --    0.01201   0.01201   0.01882   0.02588   0.03720
 Alpha virt. eigenvalues --    0.03720   0.03784   0.03826   0.03882   0.04777
 Alpha virt. eigenvalues --    0.04777   0.07236   0.10419   0.10892   0.11074

 Mulliken charges and spin densities:
               1          2
     1  Ti   0.839625   2.019466
     2  O   -0.839625  -0.019466
 Sum of Mulliken charges =  -0.00000   2.00000

 Dipole moment (field-independent basis, Debye):
    X=              0.0000    Y=              0.0000    Z=             -0.6947  Tot=              0.6947
 Quadrupole moment (field-independent basis, Debye-Ang):
   XX=            -22.4655   YY=            -22.4655   ZZ=            -26.4755
   XY=              0.0000   XZ=              0.0000   YZ=              0.0000

 \\#P ROCCSD(T)=(maxcyc=150, Full, SaveAmplitudes, ReadAmplitudes)/Gen
 -0=-74.0003751\CCSD=-73.9915781\CCSD(T)=-74.0247722\RMSD=3.968e-09\PG=
 Normal termination of Gaussian 16 at Mon Mar 12 15:34:42 2018.
