 Gaussian 16, Revision A.03,
 Gaussian 16:  ES64L-G16RevA.03 25-Dec-2016

 ----------------------------------------------------------------------
 #P ROCCSD(T)=(maxcyc=150, Full, SaveAmplitudes, ReadAmplitudes)/Gen 5d
  7f SCF=(maxcycles=300) Integral(NoXCTest) MaxDisk=500GB Pop=Regular P
 seudo=Read Guess=Read IOp(5/15=2)
 ----------------------------------------------------------------------

 ---
 CrO
 ---
 Symbolic Z-matrix:
 Charge =  0 Multiplicity = 5

                         Standard orientation:
 ---------------------------------------------------------------------
 Center     Atomic      Atomic             Coordinates (Angstroms)
 Number     Number       Type             X           Y           Z
 ---------------------------------------------------------------------
      1         24           0        0.000000    0.000000    0.425000
      2          8           0        0.000000    0.000000   -1.275000
 ---------------------------------------------------------------------

 SCF Done:  E(ROHF) =  -102.018008771     A.U. after   39 cycles
 E2 =    -0.8706318304D+00 EUMP2 =    -0.10288864060120D+03
 CCSD(T)
 CCSD(T)= -0.10293276792D+03

 Unable to determine electronic state:  an orbital has unidentified symmetry.
 Alpha  occ. eigenvalues --   -3.75949  -2.47430  -2.42716  -2.41583  -1.11011
 Alpha  occ. eigenvalues --   -0.56364  -0.56223  -0.54494  -0.49870  -0.36679
 Alpha  occ. eigenvalues --   -0.34014  -0.32924
 Alpha virt. eigenvalues --   -0.03348   0.00920   0.01583   0.02226   0.03722
 Alpha virt. eigenvalues --    0.05132   0.06389   0.07510   0.07526   0.07687
 Alpha virt. eigenvalues --    0.08324   0.08796   0.13257   0.14763   0.15618

 Mulliken charges and spin densities:
               1          2
     1  Cr   1.173042   3.905178
     2  O   -1.173042   0.094822
 Sum of Mulliken charges =  -0.00000   4.00000

 Dipole moment (field-independent basis, Debye):
    X=              0.0000    Y=              0.0000    Z=              8.8134  Tot=              8.8134
 Quadrupole moment (field-independent basis, Debye-Ang):
   XX=            -19.6538   YY=            -18.6528   ZZ=            -23.0810
   XY=              0.0000   XZ=              0.0000   YZ=              0.0000

 \\#P ROCCSD(T)=(maxcyc=150, Full, SaveAmplitudes, ReadAmplitudes)/Gen
 SD=-102.8820103\CCSD(T)=-102.9327679\RMSD=5.544e-09\PG=C*V [C*(O1Cr1)]
 Normal termination of Gaussian 16 at Tue Mar 13 06:29:10 2018.
