 Gaussian 16, Revision A.03,
 Gaussian 16:  ES64L-G16RevA.03 25-Dec-2016

 ----------------------------------------------------------------------
 #P ROCCSD(T)=(MaxCyc=150, Full)/Gen SCF=(maxcycle=400) Pseudo=Read Int
 egral(NoXCTest) Pop=Regular MaxDisk=500GB Guess=Read IOp(5/15=2)
 ----------------------------------------------------------------------

 ---
 ZnO
 ---
 Symbolic Z-matrix:
 Charge =  0 Multiplicity = 1

                         Standard orientation:
 ---------------------------------------------------------------------
 Center     Atomic      Atomic             Coordinates (Angstroms)
 Number     Number       Type             X           Y           Z
 ---------------------------------------------------------------------
      1         30           0        0.000000    0.000000    0.294737
      2          8           0        0.000000    0.000000   -1.105263
 ---------------------------------------------------------------------

 SCF Done:  E(ROHF) =  -241.164574525     A.U. after    1 cycles
 E2 =    -0.1336759713D+01 EUMP2 =    -0.24250133423815D+03
 CCSD(T)
 CCSD(T)= -0.24243535853D+03

 The electronic state is 1-SG.
 Alpha  occ. eigenvalues --   -5.92203  -4.04818  -4.03169  -4.03169  -1.24304
 Alpha  occ. eigenvalues --   -0.85618  -0.85618  -0.82525  -0.82525  -0.79222
 Alpha  occ. eigenvalues --   -0.40950  -0.40950  -0.39621
 Alpha virt. eigenvalues --   -0.03685   0.02983   0.02983   0.03076   0.04571
 Alpha virt. eigenvalues --    0.09957   0.09957   0.13618   0.18286   0.21764
 Alpha virt. eigenvalues --    0.23345   0.23345   0.25146   0.25146   0.30349

 Mulliken charges and spin densities:
               1          2
     1  Zn   1.299494   0.000000
     2  O   -1.299494   0.000000
 Sum of Mulliken charges =  -0.00000   0.00000

 Dipole moment (field-independent basis, Debye):
    X=              0.0000    Y=              0.0000    Z=              6.5531  Tot=              6.5531
 Quadrupole moment (field-independent basis, Debye-Ang):
   XX=            -17.9082   YY=            -17.9082   ZZ=            -20.1591
   XY=              0.0000   XZ=              0.0000   YZ=              0.0000

 P ROCCSD(T)=(MaxCyc=150, Full)/Gen SCF=(maxcycle=400) Pseudo=Read Inte
 -0=-242.5013342\MP4SDQ=-242.4357374\CCSD=-242.3876438\CCSD(T)=-242.435
 Normal termination of Gaussian 16 at Tue Mar 27 11:48:03 2018.
