 Gaussian 16, Revision A.03,
 Gaussian 16:  ES64L-G16RevA.03 25-Dec-2016

 ----------------------------------------------------------------------
 #P ROCCSD(T)=(MaxCyc=150, Full)/Gen SCF=(maxcycle=400) Pseudo=Read Int
 egral(NoXCTest) Pop=Regular MaxDisk=500GB Guess=Read IOp(5/15=2)
 ----------------------------------------------------------------------

 ---
 ZnO
 ---
 Symbolic Z-matrix:
 Charge =  0 Multiplicity = 1

                         Standard orientation:
 ---------------------------------------------------------------------
 Center     Atomic      Atomic             Coordinates (Angstroms)
 Number     Number       Type             X           Y           Z
 ---------------------------------------------------------------------
      1         30           0        0.000000    0.000000    0.294737
      2          8           0        0.000000    0.000000   -1.105263
 ---------------------------------------------------------------------

 SCF Done:  E(ROHF) =  -241.167666795     A.U. after   11 cycles
 E2 =    -0.1405755714D+01 EUMP2 =    -0.24257342250891D+03
 CCSD(T)
 CCSD(T)= -0.24250505447D+03

 The electronic state is 1-SG.
 Alpha  occ. eigenvalues --   -5.92188  -4.04791  -4.03153  -4.03153  -1.24251
 Alpha  occ. eigenvalues --   -0.85609  -0.85609  -0.82519  -0.82519  -0.79204
 Alpha  occ. eigenvalues --   -0.40955  -0.40955  -0.39606
 Alpha virt. eigenvalues --   -0.03675   0.02684   0.02684   0.02823   0.04133
 Alpha virt. eigenvalues --    0.08649   0.08649   0.12339   0.16739   0.17952
 Alpha virt. eigenvalues --    0.18155   0.18155   0.20135   0.20135   0.23062

 Mulliken charges and spin densities:
               1          2
     1  Zn   1.080140   0.000000
     2  O   -1.080140   0.000000
 Sum of Mulliken charges =  -0.00000   0.00000

 Dipole moment (field-independent basis, Debye):
    X=              0.0000    Y=              0.0000    Z=              6.5394  Tot=              6.5394
 Quadrupole moment (field-independent basis, Debye-Ang):
   XX=            -17.8978   YY=            -17.8978   ZZ=            -20.1521
   XY=              0.0000   XZ=              0.0000   YZ=              0.0000

 P ROCCSD(T)=(MaxCyc=150, Full)/Gen SCF=(maxcycle=400) Pseudo=Read Inte
 2-0=-242.5734225\MP4SDQ=-242.5017826\CCSD=-242.4547312\CCSD(T)=-242.50
 Normal termination of Gaussian 16 at Tue Mar 27 14:06:32 2018.
