 Gaussian 16, Revision A.03,
 Gaussian 16:  ES64L-G16RevA.03 25-Dec-2016

 ----------------------------------------------------------------------
 #P ROCCSD(T)=(maxcyc=150, Full)/Gen 5d 7f SCF=(maxcycles=300, NoVarAcc
 , VShift=300) MaxDisk=100GB Pop=Regular Pseudo=Read Guess=Read IOp(5/1
 5=2)
 ----------------------------------------------------------------------

 --
 Sc
 --
 Symbolic Z-matrix:
 Charge =  0 Multiplicity = 2

                         Standard orientation:
 ---------------------------------------------------------------------
 Center     Atomic      Atomic             Coordinates (Angstroms)
 Number     Number       Type             X           Y           Z
 ---------------------------------------------------------------------
      1         21           0        0.000000    0.000000    0.000000
 ---------------------------------------------------------------------

 SCF Done:  E(ROHF) =  -46.1359188245     A.U. after   15 cycles
 E2 =    -0.3926031136D+00 EUMP2 =    -0.46528521938176D+02
 CCSD(T)
 CCSD(T)= -0.46562048341D+02

 Unable to determine electronic state:  an orbital has unidentified symmetry.
 Alpha  occ. eigenvalues --   -2.62040  -1.63447  -1.63447  -1.59596  -0.34685
 Alpha  occ. eigenvalues --   -0.21485
 Alpha virt. eigenvalues --    0.01164   0.01255   0.01255   0.02004   0.02626
 Alpha virt. eigenvalues --    0.02628   0.02628   0.02635   0.02650   0.04242
 Alpha virt. eigenvalues --    0.04362   0.04362   0.07404   0.07482   0.07482

 Mulliken charges and spin densities:
               1          2
     1  Sc   0.000000   1.000000
 Sum of Mulliken charges =   0.00000   1.00000

 Dipole moment (field-independent basis, Debye):
    X=              0.0000    Y=              0.0000    Z=              0.0000  Tot=              0.0000
 Quadrupole moment (field-independent basis, Debye-Ang):
   XX=            -23.4021   YY=            -23.4021   ZZ=            -23.1108
   XY=              0.0000   XZ=              0.0000   YZ=             -0.0000

 1\1\GINC-C455-134\SP\ROCCSD(T)-Full\Gen\Sc1(2)\AANNABE\17-Apr-2018\0\\
 #P ROCCSD(T)=(maxcyc=150, Full)/Gen 5d 7f SCF=(maxcycles=300, NoVarAcc
 , VShift=300) MaxDisk=100GB Pop=Regular Pseudo=Read Guess=Read IOp(5/1
 5=2)\\Sc\\0,2\Sc,0,0.,0.,0.\\Version=ES64L-G16RevA.03\HF=-46.1359188\M
 P2=-46.5285219\MP3=-46.5465552\PUHF=-46.1359188\PMP2-0=-46.5285219\MP4
 SDQ=-46.5459513\CCSD=-46.5462186\CCSD(T)=-46.5620483\RMSD=5.899e-09\PG
 =OH [O(Sc1)]\\@

 Normal termination of Gaussian 16 at Tue Apr 17 16:49:03 2018.
