 Gaussian 16, Revision A.03,
 Gaussian 16:  ES64L-G16RevA.03 25-Dec-2016

 ----------------------------------------------------------------------
 #P ROCCSD(T)=(maxcyc=150, Full, SaveAmplitudes, ReadAmplitudes)/Gen 5d
  7f SCF=(maxcycles=300) Integral(NoXCTest) MaxDisk=500GB Pop=Regular P
 seudo=Read Guess=Read IOp(5/15=2)
 ----------------------------------------------------------------------

 ---
 TiO
 ---
 Symbolic Z-matrix:
 Charge =  0 Multiplicity = 3

                         Standard orientation:
 ---------------------------------------------------------------------
 Center     Atomic      Atomic             Coordinates (Angstroms)
 Number     Number       Type             X           Y           Z
 ---------------------------------------------------------------------
      1         22           0        0.000000    0.000000    0.320000
      2          8           0        0.000000    0.000000   -0.880000
 ---------------------------------------------------------------------

 SCF Done:  E(ROHF) =  -73.1395807989     A.U. after   24 cycles
 E2 =    -0.7217503316D+00 EUMP2 =    -0.73861331130496D+02
 CCSD(T)
 CCSD(T)= -0.73887525559D+02

 Unable to determine electronic state:  an orbital has unidentified symmetry.
 Alpha  occ. eigenvalues --   -2.95870  -2.01685  -1.80699  -1.80699  -1.12153
 Alpha  occ. eigenvalues --   -0.65695  -0.65695  -0.54554  -0.32870  -0.19972
 Alpha virt. eigenvalues --    0.01269   0.01269   0.02092   0.02813   0.04916
 Alpha virt. eigenvalues --    0.04916   0.05029   0.05199   0.05362   0.05754
 Alpha virt. eigenvalues --    0.05754   0.08502   0.12383   0.14307   0.14846

 Mulliken charges and spin densities:
               1          2
     1  Ti   0.571923   2.060693
     2  O   -0.571923  -0.060693
 Sum of Mulliken charges =  -0.00000   2.00000

 Dipole moment (field-independent basis, Debye):
    X=              0.0000    Y=              0.0000    Z=             -0.7184  Tot=              0.7184
 Quadrupole moment (field-independent basis, Debye-Ang):
   XX=            -22.5394   YY=            -22.5394   ZZ=            -26.5066
   XY=              0.0000   XZ=              0.0000   YZ=              0.0000

 \\#P ROCCSD(T)=(maxcyc=150, Full, SaveAmplitudes, ReadAmplitudes)/Gen
 .8561806\CCSD(T)=-73.8875256\RMSD=3.495e-09\PG=C*V [C*(O1Ti1)]\\@
 Normal termination of Gaussian 16 at Fri Mar  9 15:41:25 2018.
