 Gaussian 16, Revision A.03,
 Gaussian 16:  ES64L-G16RevA.03 25-Dec-2016

 ----------------------------------------------------------------------
 #P ROCCSD(T)=(maxcyc=150, Full)/Gen 5d 7f SCF=(maxcycles=300, NoVarAcc
 , VShift=200) MaxDisk=100GB Pop=Regular Pseudo=Read Guess=Read
 ----------------------------------------------------------------------

 --
 Mn
 --
 Symbolic Z-matrix:
 Charge =  0 Multiplicity = 6

                         Standard orientation:
 ---------------------------------------------------------------------
 Center     Atomic      Atomic             Coordinates (Angstroms)
 Number     Number       Type             X           Y           Z
 ---------------------------------------------------------------------
      1         25           0        0.000000    0.000000    0.000000
 ---------------------------------------------------------------------

 SCF Done:  E(ROHF) =  -103.524004248     A.U. after   12 cycles
 E2 =    -0.5658490861D+00 EUMP2 =    -0.10408985333393D+03
 CCSD(T)
 CCSD(T)= -0.10411130298D+03

 The electronic state is 6-A1G.
 Alpha  occ. eigenvalues --   -4.15675  -2.79709  -2.79709  -2.79709  -0.62845
 Alpha  occ. eigenvalues --   -0.62845  -0.62845  -0.62845  -0.62845  -0.26843
 Alpha virt. eigenvalues --    0.01835   0.01835   0.01835   0.02662   0.06566
 Alpha virt. eigenvalues --    0.06566   0.06566   0.08967   0.08967   0.08967
 Alpha virt. eigenvalues --    0.08967   0.08967   0.13906   0.24191   0.24191

 Mulliken charges and spin densities:
               1          2
     1  Mn  -0.000000   5.000000
 Sum of Mulliken charges =  -0.00000   5.00000

 Dipole moment (field-independent basis, Debye):
    X=              0.0000    Y=              0.0000    Z=              0.0000  Tot=              0.0000
 Quadrupole moment (field-independent basis, Debye-Ang):
   XX=            -18.8239   YY=            -18.8239   ZZ=            -18.8239
   XY=             -0.0000   XZ=             -0.0000   YZ=              0.0000

 1\1\GINC-C406-023\SP\ROCCSD(T)-Full\Gen\Mn1(6)\AANNABE\12-Mar-2018\0\\
 #P ROCCSD(T)=(maxcyc=150, Full)/Gen 5d 7f SCF=(maxcycles=300, NoVarAcc
 , VShift=200) MaxDisk=100GB Pop=Regular Pseudo=Read Guess=Read\\Mn\\0,
 6\Mn,0,0.,0.,0.\\Version=ES64L-G16RevA.03\State=6-A1G\HF=-103.5240042\
 MP2=-104.0898533\MP3=-104.0908007\PUHF=-103.5240042\PMP2-0=-104.089853
 3\MP4SDQ=-104.0938652\CCSD=-104.0939736\CCSD(T)=-104.111303\RMSD=7.953
 e-09\PG=OH [O(Mn1)]\\@

 Normal termination of Gaussian 16 at Mon Mar 12 13:47:22 2018.
