 Gaussian 16, Revision A.03,
 Gaussian 16:  ES64L-G16RevA.03 25-Dec-2016

 ----------------------------------------------------------------------
 #P ROCCSD(T)=(maxcyc=150, Full)/Gen 5d 7f SCF=(maxcycles=300) Integral
 (NoXCTest) MaxDisk=500GB Pop=Regular Pseudo=Read IOp(5/15=2) Guess=Rea
 d
 ----------------------------------------------------------------------

 ---
 ScH
 ---
 Symbolic Z-matrix:
 Charge =  0 Multiplicity = 1

                         Standard orientation:
 ---------------------------------------------------------------------
 Center     Atomic      Atomic             Coordinates (Angstroms)
 Number     Number       Type             X           Y           Z
 ---------------------------------------------------------------------
      1         21           0        0.000000    0.000000    0.086364
      2          1           0        0.000000    0.000000   -1.813636
 ---------------------------------------------------------------------

 SCF Done:  E(ROHF) =  -46.5957363427     A.U. after   11 cycles
 E2 =    -0.4191001654D+00 EUMP2 =    -0.47014836508114D+02
 CCSD(T)
 CCSD(T)= -0.47059145874D+02

 The electronic state is 1-SG.
 Alpha  occ. eigenvalues --   -2.70582  -1.67423  -1.67423  -1.67293  -0.39194
 Alpha  occ. eigenvalues --   -0.23585
 Alpha virt. eigenvalues --    0.01056   0.01056   0.01355   0.01998   0.02836
 Alpha virt. eigenvalues --    0.02836   0.02935   0.02935   0.02974   0.04006
 Alpha virt. eigenvalues --    0.04006   0.04023   0.06971   0.06971   0.07648

 Mulliken charges and spin densities:
               1          2
     1  Sc   0.278646   0.000000
     2  H   -0.278646   0.000000
 Sum of Mulliken charges =  -0.00000   0.00000

 Dipole moment (field-independent basis, Debye):
    X=              0.0000    Y=              0.0000    Z=              1.8557  Tot=              1.8557
 Quadrupole moment (field-independent basis, Debye-Ang):
   XX=            -23.0127   YY=            -23.0127   ZZ=            -27.5421
   XY=              0.0000   XZ=              0.0000   YZ=              0.0000

 P ROCCSD(T)=(maxcyc=150, Full)/Gen 5d 7f SCF=(maxcycles=300) Integral(
 PMP2-0=-47.0148365\MP4SDQ=-47.0394279\CCSD=-47.0395837\CCSD(T)=-47.059
 Normal termination of Gaussian 16 at Wed Feb 14 06:49:51 2018.
