 Gaussian 16, Revision A.03,
 Gaussian 16:  ES64L-G16RevA.03 25-Dec-2016

 ----------------------------------------------------------------------
 #P ROCCSD(T)=(maxcyc=150, Full, SaveAmplitudes, ReadAmplitudes)/Gen 5d
  7f SCF=(maxcycles=300) Integral(NoXCTest, DKHSO) MaxDisk=500GB Pop=Re
 gular Guess=Read
 ----------------------------------------------------------------------

 ---
 ScO
 ---
 Symbolic Z-matrix:
 Charge =  0 Multiplicity = 2

                         Standard orientation:
 ---------------------------------------------------------------------
 Center     Atomic      Atomic             Coordinates (Angstroms)
 Number     Number       Type             X           Y           Z
 ---------------------------------------------------------------------
      1         21           0        0.000000    0.000000    0.303448
      2          8           0        0.000000    0.000000   -0.796552
 ---------------------------------------------------------------------

 SCF Done:  E(ROHF) =  -837.721792596     A.U. after   17 cycles
 E2 =    -0.1100516479D+01 EUMP2 =    -0.83882230907544D+03
 CCSD(T)
 CCSD(T)= -0.83884391636D+03

 The electronic state is 2-SG.
 Alpha  occ. eigenvalues -- -166.68809 -20.65664 -19.09738 -15.52431 -15.52431
 Alpha  occ. eigenvalues --  -15.52234  -2.67795  -1.84992  -1.53032  -1.53032
 Alpha  occ. eigenvalues --   -1.03028  -0.69409  -0.69409  -0.46904  -0.16568
 Alpha virt. eigenvalues --    0.00919   0.00919   0.01367   0.02692   0.02830
 Alpha virt. eigenvalues --    0.02830   0.02844   0.02844   0.02960   0.04381
 Alpha virt. eigenvalues --    0.04381   0.06123   0.08143   0.08143   0.08395

 Mulliken charges and spin densities:
               1          2
     1  Sc   0.695448   1.029158
     2  O   -0.695448  -0.029158
 Sum of Mulliken charges =  -0.00000   1.00000

 Dipole moment (field-independent basis, Debye):
    X=              0.0000    Y=             -0.0000    Z=             -2.4529  Tot=              2.4529
 Quadrupole moment (field-independent basis, Debye-Ang):
   XX=            -24.8691   YY=            -24.8691   ZZ=            -29.0479
   XY=              0.0000   XZ=              0.0000   YZ=              0.0000

 \\#P ROCCSD(T)=(maxcyc=150, Full, SaveAmplitudes, ReadAmplitudes)/Gen
 7926\PMP2-0=-838.8223091\CCSD=-838.8161113\CCSD(T)=-838.8439164\RMSD=2
 Normal termination of Gaussian 16 at Wed Feb 21 00:30:54 2018.
