 Gaussian 16, Revision A.03,
 Gaussian 16:  ES64L-G16RevA.03 25-Dec-2016

 ----------------------------------------------------------------------
 #P ROCCSD(T)=(maxcyc=150, Full, SaveAmplitudes, ReadAmplitudes)/Gen 5d
  7f SCF=(maxcycles=300) Integral(NoXCTest) MaxDisk=500GB Pop=Regular P
 seudo=Read Guess=Read
 ----------------------------------------------------------------------

 ---
 CrO
 ---
 Symbolic Z-matrix:
 Charge =  0 Multiplicity = 5

                         Standard orientation:
 ---------------------------------------------------------------------
 Center     Atomic      Atomic             Coordinates (Angstroms)
 Number     Number       Type             X           Y           Z
 ---------------------------------------------------------------------
      1         24           0        0.000000    0.000000    0.400000
      2          8           0        0.000000    0.000000   -1.200000
 ---------------------------------------------------------------------

 SCF Done:  E(ROHF) =  -102.025452616     A.U. after   24 cycles
 E2 =    -0.9265974673D+00 EUMP2 =    -0.10295205008285D+03
 CCSD(T)
 CCSD(T)= -0.10297574536D+03

 Unable to determine electronic state:  an orbital has unidentified symmetry.
 Alpha  occ. eigenvalues --   -3.78846  -2.49821  -2.45824  -2.42671  -1.16385
 Alpha  occ. eigenvalues --   -0.61752  -0.58409  -0.57162  -0.47843  -0.42770
 Alpha  occ. eigenvalues --   -0.38425  -0.32047
 Alpha virt. eigenvalues --   -0.00329   0.00613   0.01542   0.02671   0.03466
 Alpha virt. eigenvalues --    0.04144   0.05312   0.05312   0.05471   0.05799
 Alpha virt. eigenvalues --    0.05872   0.06344   0.10808   0.12698   0.12812

 Mulliken charges and spin densities:
               1          2
     1  Cr   1.050824   3.898621
     2  O   -1.050824   0.101379
 Sum of Mulliken charges =   0.00000   4.00000

 Dipole moment (field-independent basis, Debye):
    X=              0.0000    Y=              0.0000    Z=              6.2680  Tot=              6.2680
 Quadrupole moment (field-independent basis, Debye-Ang):
   XX=            -20.5078   YY=            -19.4296   ZZ=            -23.7456
   XY=              0.0000   XZ=              0.0000   YZ=              0.0000

 \\#P ROCCSD(T)=(maxcyc=150, Full, SaveAmplitudes, ReadAmplitudes)/Gen
 MP2-0=-102.9520501\CCSD=-102.9229837\CCSD(T)=-102.9757454\RMSD=8.352e-
 Normal termination of Gaussian 16 at Mon Mar 12 16:13:30 2018.
