 Gaussian 16, Revision A.03,
 Gaussian 16:  ES64L-G16RevA.03 25-Dec-2016

 ----------------------------------------------------------------------
 #P ROCCSD(T)=(maxcyc=150, Full, SaveAmplitudes, ReadAmplitudes)/Gen 5d
  7f SCF=(maxcycles=300) Integral(NoXCTest) MaxDisk=500GB Pop=Regular P
 seudo=Read Guess=Read IOp(5/15=2)
 ----------------------------------------------------------------------

 ---
 MnO
 ---
 Symbolic Z-matrix:
 Charge =  0 Multiplicity = 6

                         Standard orientation:
 ---------------------------------------------------------------------
 Center     Atomic      Atomic             Coordinates (Angstroms)
 Number     Number       Type             X           Y           Z
 ---------------------------------------------------------------------
      1         25           0        0.000000    0.000000    0.363636
      2          8           0        0.000000    0.000000   -1.136364
 ---------------------------------------------------------------------

 SCF Done:  E(ROHF) =  -119.147693215     A.U. after   41 cycles
 E2 =    -0.9240241147D+00 EUMP2 =    -0.12007171732984D+03
 CCSD(T)
 CCSD(T)= -0.12008591531D+03

 The electronic state is 6-SG.
 Alpha  occ. eigenvalues --   -4.23440  -2.78828  -2.78828  -2.76397  -1.19854
 Alpha  occ. eigenvalues --   -0.68071  -0.68071  -0.63819  -0.63819  -0.53342
 Alpha  occ. eigenvalues --   -0.38957  -0.38957  -0.33379
 Alpha virt. eigenvalues --   -0.00478   0.01969   0.01969   0.03275   0.03888
 Alpha virt. eigenvalues --    0.06867   0.06867   0.08653   0.08653   0.08803
 Alpha virt. eigenvalues --    0.09460   0.09460   0.13175   0.14649   0.23218

 Mulliken charges and spin densities:
               1          2
     1  Mn   1.031719   4.822770
     2  O   -1.031719   0.177230
 Sum of Mulliken charges =  -0.00000   5.00000

 Dipole moment (field-independent basis, Debye):
    X=              0.0000    Y=              0.0000    Z=              6.1409  Tot=              6.1409
 Quadrupole moment (field-independent basis, Debye-Ang):
   XX=            -19.3824   YY=            -19.3824   ZZ=            -22.9089
   XY=              0.0000   XZ=              0.0000   YZ=              0.0000

 \\#P ROCCSD(T)=(maxcyc=150, Full, SaveAmplitudes, ReadAmplitudes)/Gen
 .061374\CCSD=-120.0435711\CCSD(T)=-120.0859153\RMSD=6.097e-09\PG=C*V [
 Normal termination of Gaussian 16 at Wed Mar 14 04:19:31 2018.
