 Gaussian 16, Revision A.03,
 Gaussian 16:  ES64L-G16RevA.03 25-Dec-2016

 ----------------------------------------------------------------------
 #P ROCCSD(T)=(maxcyc=150, Full, SaveAmplitudes, ReadAmplitudes)/Gen 5d
  7f SCF=(maxcycles=300) Integral(NoXCTest) MaxDisk=500GB Pop=Regular P
 seudo=Read Guess=Read
 ----------------------------------------------------------------------

 ---
 CrO
 ---
 Symbolic Z-matrix:
 Charge =  0 Multiplicity = 5

                         Standard orientation:
 ---------------------------------------------------------------------
 Center     Atomic      Atomic             Coordinates (Angstroms)
 Number     Number       Type             X           Y           Z
 ---------------------------------------------------------------------
      1         24           0        0.000000    0.000000    0.350000
      2          8           0        0.000000    0.000000   -1.050000
 ---------------------------------------------------------------------

 SCF Done:  E(ROHF) =  -101.841843333     A.U. after   24 cycles
 E2 =    -0.9165258810D+00 EUMP2 =    -0.10275836921380D+03
 CCSD(T)
 CCSD(T)= -0.10277309763D+03

 Unable to determine electronic state:  an orbital has unidentified symmetry.
 Alpha  occ. eigenvalues --   -3.76442  -2.50667  -2.46459  -2.45836  -1.23754
 Alpha  occ. eigenvalues --   -0.65444  -0.56956  -0.53848  -0.53463  -0.52109
 Alpha  occ. eigenvalues --   -0.38631  -0.28427
 Alpha virt. eigenvalues --    0.01028   0.01610   0.02024   0.02731   0.04498
 Alpha virt. eigenvalues --    0.04910   0.05375   0.05377   0.05515   0.05724
 Alpha virt. eigenvalues --    0.06918   0.06973   0.10490   0.13645   0.14129

 Mulliken charges and spin densities:
               1          2
     1  Cr   0.995422   3.887553
     2  O   -0.995422   0.112447
 Sum of Mulliken charges =  -0.00000   4.00000

 Dipole moment (field-independent basis, Debye):
    X=              0.0000    Y=              0.0000    Z=              3.0763  Tot=              3.0763
 Quadrupole moment (field-independent basis, Debye-Ang):
   XX=            -21.0390   YY=            -19.7729   ZZ=            -24.2229
   XY=              0.0000   XZ=              0.0000   YZ=              0.0000

 \\#P ROCCSD(T)=(maxcyc=150, Full, SaveAmplitudes, ReadAmplitudes)/Gen
 MP2-0=-102.7583692\CCSD=-102.7265199\CCSD(T)=-102.7730976\RMSD=2.356e-
 Normal termination of Gaussian 16 at Mon Mar 12 16:07:37 2018.
