 Gaussian 16, Revision A.03,
 Gaussian 16:  ES64L-G16RevA.03 25-Dec-2016

 ----------------------------------------------------------------------
 #P ROCCSD(T)=(maxcyc=150, Full)/Gen 5d 7f SCF=(maxcycles=300, NoVarAcc
 , VShift=200) MaxDisk=100GB Pop=Regular Pseudo=Read Guess=Read
 ----------------------------------------------------------------------

 --
 Ti
 --
 Symbolic Z-matrix:
 Charge =  0 Multiplicity = 3

                         Standard orientation:
 ---------------------------------------------------------------------
 Center     Atomic      Atomic             Coordinates (Angstroms)
 Number     Number       Type             X           Y           Z
 ---------------------------------------------------------------------
      1         22           0        0.000000    0.000000    0.000000
 ---------------------------------------------------------------------

 SCF Done:  E(ROHF) =  -57.6282831644     A.U. after   19 cycles
 E2 =    -0.4298833251D+00 EUMP2 =    -0.58058166489485D+02
 CCSD(T)
 CCSD(T)= -0.58094068138D+02

 Unable to determine electronic state:  an orbital has unidentified symmetry.
 Alpha  occ. eigenvalues --   -3.00107  -1.89284  -1.89284  -1.89284  -0.43985
 Alpha  occ. eigenvalues --   -0.43985  -0.22995
 Alpha virt. eigenvalues --    0.01374   0.01374   0.01374   0.02238   0.03897
 Alpha virt. eigenvalues --    0.03897   0.03897   0.03944   0.03944   0.04811
 Alpha virt. eigenvalues --    0.04811   0.04811   0.10319   0.10319   0.10319

 Mulliken charges and spin densities:
               1          2
     1  Ti  -0.000000   2.000000
 Sum of Mulliken charges =  -0.00000   2.00000

 Dipole moment (field-independent basis, Debye):
    X=              0.0000    Y=              0.0000    Z=              0.0000  Tot=              0.0000
 Quadrupole moment (field-independent basis, Debye-Ang):
   XX=            -21.9502   YY=            -21.9502   ZZ=            -21.9502
   XY=              0.0000   XZ=              0.0000   YZ=              0.0000

 1\1\GINC-C464-033\SP\ROCCSD(T)-Full\Gen\Ti1(3)\AANNABE\13-Mar-2018\0\\
 #P ROCCSD(T)=(maxcyc=150, Full)/Gen 5d 7f SCF=(maxcycles=300, NoVarAcc
 , VShift=200) MaxDisk=100GB Pop=Regular Pseudo=Read Guess=Read\\Ti\\0,
 3\Ti,0,0.,0.,0.\\Version=ES64L-G16RevA.03\HF=-57.6282832\MP2=-58.05816
 65\MP3=-58.0776416\PUHF=-57.6282832\PMP2-0=-58.0581665\MP4SDQ=-58.0775
 499\CCSD=-58.0779215\CCSD(T)=-58.0940681\RMSD=2.381e-09\PG=OH [O(Ti1)]
 \\@

 Normal termination of Gaussian 16 at Tue Mar 13 12:42:03 2018.
