 Gaussian 16, Revision A.03,
 Gaussian 16:  ES64L-G16RevA.03 25-Dec-2016

 ----------------------------------------------------------------------
 #P ROCCSD(T)=(maxcyc=150, Full)/Gen 5d 7f SCF=(maxcycles=300) MaxDisk=
 500GB Pop=Regular Pseudo=Read Guess=Read
 ----------------------------------------------------------------------

 --
 Sc
 --
 Symbolic Z-matrix:
 Charge =  0 Multiplicity = 2

                         Standard orientation:
 ---------------------------------------------------------------------
 Center     Atomic      Atomic             Coordinates (Angstroms)
 Number     Number       Type             X           Y           Z
 ---------------------------------------------------------------------
      1         21           0        0.000000    0.000000    0.000000
 ---------------------------------------------------------------------

 SCF Done:  E(ROHF) =  -46.2480613105     A.U. after   16 cycles
 E2 =    -0.3977284621D+00 EUMP2 =    -0.46645789772597D+02
 CCSD(T)
 CCSD(T)= -0.46679179685D+02

 Unable to determine electronic state:  an orbital has unidentified symmetry.
 Alpha  occ. eigenvalues --   -2.68917  -1.62315  -1.62315  -1.58468  -0.33979
 Alpha  occ. eigenvalues --   -0.21576
 Alpha virt. eigenvalues --    0.01170   0.01261   0.01261   0.02001   0.02626
 Alpha virt. eigenvalues --    0.02629   0.02629   0.02635   0.02650   0.04247
 Alpha virt. eigenvalues --    0.04366   0.04366   0.07415   0.07493   0.07493

 Mulliken charges and spin densities:
               1          2
     1  Sc   0.000000   1.000000
 Sum of Mulliken charges =   0.00000   1.00000

 Dipole moment (field-independent basis, Debye):
    X=              0.0000    Y=              0.0000    Z=              0.0000  Tot=              0.0000
 Quadrupole moment (field-independent basis, Debye-Ang):
   XX=            -23.3307   YY=            -23.3307   ZZ=            -23.0202
   XY=              0.0000   XZ=              0.0000   YZ=             -0.0000

 1\1\GINC-C506-021\SP\ROCCSD(T)-Full\Gen\Sc1(2)\AANNABE\16-Feb-2018\0\\
 #P ROCCSD(T)=(maxcyc=150, Full)/Gen 5d 7f SCF=(maxcycles=300) MaxDisk=
 500GB Pop=Regular Pseudo=Read Guess=Read\\Sc\\0,2\Sc,0,0.,0.,0.\\Versi
 on=ES64L-G16RevA.03\HF=-46.2480613\MP2=-46.6457898\MP3=-46.6636517\PUH
 F=-46.2480613\PMP2-0=-46.6457898\MP4SDQ=-46.6628553\CCSD=-46.6631258\C
 CSD(T)=-46.6791797\RMSD=2.151e-09\PG=OH [O(Sc1)]\\@

 Normal termination of Gaussian 16 at Fri Feb 16 11:59:32 2018.
