 Gaussian 16, Revision A.03,
 Gaussian 16:  ES64L-G16RevA.03 25-Dec-2016

 ----------------------------------------------------------------------
 #P ROCCSD(T)=(maxcyc=150, Full)/Gen 5d 7f SCF=(maxcycles=300) Integral
 (NoXCTest, DKHSO) MaxDisk=500GB Pop=Regular IOp(5/15=2) Guess=Read
 ----------------------------------------------------------------------

 ---
 CrH
 ---
 Symbolic Z-matrix:
 Charge =  0 Multiplicity = 6

                         Standard orientation:
 ---------------------------------------------------------------------
 Center     Atomic      Atomic             Coordinates (Angstroms)
 Number     Number       Type             X           Y           Z
 ---------------------------------------------------------------------
      1         24           0        0.000000    0.000000    0.068000
      2          1           0        0.000000    0.000000   -1.632000
 ---------------------------------------------------------------------

 SCF Done:  E(ROHF) =  -1050.20402358     A.U. after   20 cycles
 E2 =    -0.9146260053D+00 EUMP2 =    -0.10511186495835D+04
 CCSD(T)
 CCSD(T)= -0.10511545652D+04

 The electronic state is 6-SG.
 Alpha  occ. eigenvalues -- -222.20355 -26.79636 -22.43042 -22.43042 -22.43020
 Alpha  occ. eigenvalues --   -3.66940  -2.42403  -2.42403  -2.38382  -0.54455
 Alpha  occ. eigenvalues --   -0.54455  -0.51274  -0.51274  -0.40724  -0.26003
 Alpha virt. eigenvalues --    0.01301   0.01301   0.02291   0.02538   0.05543
 Alpha virt. eigenvalues --    0.05543   0.05809   0.07613   0.07613   0.08048
 Alpha virt. eigenvalues --    0.08048   0.08862   0.10388   0.17822   0.21021

 Mulliken charges and spin densities:
               1          2
     1  Cr   0.459523   4.983131
     2  H   -0.459523   0.016869
 Sum of Mulliken charges =  -0.00000   5.00000

 Dipole moment (field-independent basis, Debye):
    X=              0.0000    Y=              0.0000    Z=              2.1449  Tot=              2.1449
 Quadrupole moment (field-independent basis, Debye-Ang):
   XX=            -17.3366   YY=            -17.3366   ZZ=            -24.5653
   XY=              0.0000   XZ=              0.0000   YZ=              0.0000

 \\#P ROCCSD(T)=(maxcyc=150, Full)/Gen 5d 7f SCF=(maxcycles=300) Integr
 Normal termination of Gaussian 16 at Tue Feb 13 18:01:35 2018.
