 Gaussian 16, Revision A.03,
 Gaussian 16:  ES64L-G16RevA.03 25-Dec-2016

 ----------------------------------------------------------------------
 #P ROCCSD(T)=(maxcyc=150, Full, SaveAmplitudes, ReadAmplitudes)/Gen 5d
  7f SCF=(maxcycles=300) Integral(NoXCTest) MaxDisk=500GB Pop=Regular P
 seudo=Read Guess=Read
 ----------------------------------------------------------------------

 ---
 MnH
 ---
 Symbolic Z-matrix:
 Charge =  0 Multiplicity = 7

                         Standard orientation:
 ---------------------------------------------------------------------
 Center     Atomic      Atomic             Coordinates (Angstroms)
 Number     Number       Type             X           Y           Z
 ---------------------------------------------------------------------
      1         25           0        0.000000    0.000000    0.069231
      2          1           0        0.000000    0.000000   -1.730769
 ---------------------------------------------------------------------

 SCF Done:  E(ROHF) =  -104.245584018     A.U. after   20 cycles
 E2 =    -0.5988242477D+00 EUMP2 =    -0.10484440826581D+03
 CCSD(T)
 CCSD(T)= -0.10486616539D+03

 The electronic state is 7-SG.
 Alpha  occ. eigenvalues --   -4.18110  -2.77074  -2.77074  -2.76840  -0.65606
 Alpha  occ. eigenvalues --   -0.65606  -0.65127  -0.64922  -0.64922  -0.40237
 Alpha  occ. eigenvalues --   -0.26394
 Alpha virt. eigenvalues --    0.01154   0.01154   0.02167   0.02895   0.05036
 Alpha virt. eigenvalues --    0.05036   0.05624   0.05790   0.05790   0.06198
 Alpha virt. eigenvalues --    0.06198   0.09254   0.12944   0.13970   0.18075

 Mulliken charges and spin densities:
               1          2
     1  Mn   0.366848   5.951472
     2  H   -0.366848   0.048528
 Sum of Mulliken charges =   0.00000   6.00000

 Dipole moment (field-independent basis, Debye):
    X=              0.0000    Y=              0.0000    Z=              1.6910  Tot=              1.6910
 Quadrupole moment (field-independent basis, Debye-Ang):
   XX=            -16.1807   YY=            -16.1807   ZZ=            -26.7596
   XY=              0.0000   XZ=              0.0000   YZ=              0.0000

 \\#P ROCCSD(T)=(maxcyc=150, Full, SaveAmplitudes, ReadAmplitudes)/Gen
 .245584\PMP2-0=-104.8444083\CCSD=-104.8497243\CCSD(T)=-104.8661654\RMS
 Normal termination of Gaussian 16 at Mon Feb 26 14:14:18 2018.
