 Gaussian 16, Revision A.03,
 Gaussian 16:  ES64L-G16RevA.03 25-Dec-2016

 ----------------------------------------------------------------------
 #P ROCCSD(T)=(maxcyc=150, Full)/Gen 5d 7f SCF=(maxcycles=300) Integral
 (NoXCTest, DKHSO) MaxDisk=500GB Pop=Regular IOp(5/15=2) Guess=Read
 ----------------------------------------------------------------------

 ---
 CrH
 ---
 Symbolic Z-matrix:
 Charge =  0 Multiplicity = 6

                         Standard orientation:
 ---------------------------------------------------------------------
 Center     Atomic      Atomic             Coordinates (Angstroms)
 Number     Number       Type             X           Y           Z
 ---------------------------------------------------------------------
      1         24           0        0.000000    0.000000    0.056000
      2          1           0        0.000000    0.000000   -1.344000
 ---------------------------------------------------------------------

 SCF Done:  E(ROHF) =  -1050.17610335     A.U. after   25 cycles
 E2 =    -0.9790614487D+00 EUMP2 =    -0.10511551647970D+04
 CCSD(T)
 CCSD(T)= -0.10511788303D+04

 The electronic state is 6-SG.
 Alpha  occ. eigenvalues -- -222.15379 -26.74433 -22.37862 -22.37862 -22.37788
 Alpha  occ. eigenvalues --   -3.62263  -2.37653  -2.37653  -2.34836  -0.49570
 Alpha  occ. eigenvalues --   -0.49570  -0.46727  -0.46727  -0.43814  -0.25351
 Alpha virt. eigenvalues --    0.01501   0.01501   0.01947   0.02233   0.04642
 Alpha virt. eigenvalues --    0.05328   0.05328   0.05422   0.05422   0.05694
 Alpha virt. eigenvalues --    0.05694   0.06475   0.09513   0.12832   0.16860

 Mulliken charges and spin densities:
               1          2
     1  Cr   0.351867   4.981246
     2  H   -0.351867   0.018754
 Sum of Mulliken charges =  -0.00000   5.00000

 Dipole moment (field-independent basis, Debye):
    X=              0.0000    Y=              0.0000    Z=              1.8407  Tot=              1.8407
 Quadrupole moment (field-independent basis, Debye-Ang):
   XX=            -17.1580   YY=            -17.1580   ZZ=            -21.3501
   XY=             -0.0000   XZ=              0.0000   YZ=              0.0000

 \\#P ROCCSD(T)=(maxcyc=150, Full)/Gen 5d 7f SCF=(maxcycles=300) Integr
 Normal termination of Gaussian 16 at Tue Feb 13 19:56:49 2018.
