 Gaussian 16, Revision A.03,
 Gaussian 16:  ES64L-G16RevA.03 25-Dec-2016

 ----------------------------------------------------------------------
 #P ROCCSD(T)=(maxcyc=150, Full, SaveAmplitudes, ReadAmplitudes)/Gen 5d
  7f SCF=(maxcycles=300) Integral(NoXCTest) MaxDisk=500GB Pop=Regular P
 seudo=Read Guess=Read
 ----------------------------------------------------------------------

 ---
 TiO
 ---
 Symbolic Z-matrix:
 Charge =  0 Multiplicity = 3

                         Standard orientation:
 ---------------------------------------------------------------------
 Center     Atomic      Atomic             Coordinates (Angstroms)
 Number     Number       Type             X           Y           Z
 ---------------------------------------------------------------------
      1         22           0        0.000000    0.000000    0.453333
      2          8           0        0.000000    0.000000   -1.246667
 ---------------------------------------------------------------------

 SCF Done:  E(ROHF) =  -73.3039503497     A.U. after   21 cycles
 E2 =    -0.7770091203D+00 EUMP2 =    -0.74080959470007D+02
 CCSD(T)
 CCSD(T)= -0.74110386095D+02

 Unable to determine electronic state:  an orbital has unidentified symmetry.
 Alpha  occ. eigenvalues --   -3.02735  -1.93805  -1.93805  -1.90843  -1.15485
 Alpha  occ. eigenvalues --   -0.47988  -0.45098  -0.42154  -0.42154  -0.27494
 Alpha virt. eigenvalues --   -0.00034  -0.00034   0.01123   0.02265   0.03383
 Alpha virt. eigenvalues --    0.03383   0.03647   0.03738   0.04147   0.04237
 Alpha virt. eigenvalues --    0.04237   0.04718   0.08262   0.10189   0.11410

 Mulliken charges and spin densities:
               1          2
     1  Ti   1.051047   1.972085
     2  O   -1.051047   0.027915
 Sum of Mulliken charges =  -0.00000   2.00000

 Dipole moment (field-independent basis, Debye):
    X=              0.0000    Y=              0.0000    Z=              5.1157  Tot=              5.1157
 Quadrupole moment (field-independent basis, Debye-Ang):
   XX=            -21.5683   YY=            -21.5683   ZZ=            -29.7373
   XY=              0.0000   XZ=              0.0000   YZ=              0.0000

 \\#P ROCCSD(T)=(maxcyc=150, Full, SaveAmplitudes, ReadAmplitudes)/Gen
 -0=-74.0809595\CCSD=-74.0606371\CCSD(T)=-74.1103861\RMSD=7.122e-10\PG=
 Normal termination of Gaussian 16 at Sat Mar 10 03:20:50 2018.
