 Gaussian 16, Revision A.03,
 Gaussian 16:  ES64L-G16RevA.03 25-Dec-2016

 ----------------------------------------------------------------------
 #P ROCCSD(T)=(MaxCyc=150, Window=(7,0))/Gen SCF=(maxcycle=400) Integra
 l(DKHSO, NoXCTest) Pop=Regular MaxDisk=500GB Guess=Read IOp(5/15=2)
 ----------------------------------------------------------------------

 ---
 CuO
 ---
 Symbolic Z-matrix:
 Charge =  0 Multiplicity = 2

                         Standard orientation:
 ---------------------------------------------------------------------
 Center     Atomic      Atomic             Coordinates (Angstroms)
 Number     Number       Type             X           Y           Z
 ---------------------------------------------------------------------
      1         29           0        0.000000    0.000000    0.259459
      2          8           0        0.000000    0.000000   -0.940541
 ---------------------------------------------------------------------

 SCF Done:  E(ROHF) =  -1727.64831330     A.U. after   27 cycles
 E2 =    -0.1372188247D+01 EUMP2 =    -0.17290205015517D+04
 CCSD(T)
 CCSD(T)= -0.17289041196D+04

 Unable to determine electronic state:  an orbital has unidentified symmetry.
 Alpha  occ. eigenvalues -- -332.71478 -41.93636 -36.08257 -36.07392 -36.05184
 Alpha  occ. eigenvalues --  -20.61472  -5.45279  -3.71009  -3.64214  -3.60021
 Alpha  occ. eigenvalues --   -1.36370  -0.88513  -0.84973  -0.75974  -0.71113
 Alpha  occ. eigenvalues --   -0.70794  -0.50233  -0.46358  -0.35292
 Alpha virt. eigenvalues --    0.00669   0.03144   0.03277   0.03725   0.05666
 Alpha virt. eigenvalues --    0.10781   0.11248   0.13268   0.18745   0.19932
 Alpha virt. eigenvalues --    0.19937   0.20889   0.21392   0.21835   0.25675

 Mulliken charges and spin densities:
               1          2
     1  Cu   0.881971   0.463178
     2  O   -0.881971   0.536822
 Sum of Mulliken charges =  -0.00000   1.00000

 Dipole moment (field-independent basis, Debye):
    X=              0.0000    Y=              0.0000    Z=              3.2088  Tot=              3.2088
 Quadrupole moment (field-independent basis, Debye-Ang):
   XX=            -19.2684   YY=            -18.1430   ZZ=            -18.7275
   XY=              0.0000   XZ=              0.0000   YZ=              0.0000

 1\1\GINC-C505-134\SP\ROCCSD(T)-RW\Gen\Cu1O1(2)\GWANG18\26-Mar-2018\0\\
 #P ROCCSD(T)=(MaxCyc=150, Window=(7,0))/Gen SCF=(maxcycle=400) Integra
 l(DKHSO, NoXCTest) Pop=Regular MaxDisk=500GB Guess=Read IOp(5/15=2)\\C
 uO\\0,2\Cu,0,0.,0.,0.\O,0,0.,0.,1.2\\Version=ES64L-G16RevA.03\HF=-1727
 .6483133\MP2=-1729.0205016\MP3=-1728.7528589\PUHF=-1727.6483133\PMP2-0
 =-1729.0205016\MP4SDQ=-1728.9368511\CCSD=-1728.8523025\CCSD(T)=-1728.9
 041196\RMSD=2.257e-09\PG=C*V [C*(O1Cu1)]\\@

 Normal termination of Gaussian 16 at Mon Mar 26 00:05:19 2018.
