 Gaussian 16, Revision A.03,
 Gaussian 16:  ES64L-G16RevA.03 25-Dec-2016

 ----------------------------------------------------------------------
 #P ROCCSD(T)=(MaxCyc=150, Window=(7,0))/Gen SCF=(maxcycle=400) Integra
 l(DKHSO, NoXCTest) Pop=Regular MaxDisk=500GB Guess=Read IOp(5/15=2)
 ----------------------------------------------------------------------

 ---
 CuO
 ---
 Symbolic Z-matrix:
 Charge =  0 Multiplicity = 2

                         Standard orientation:
 ---------------------------------------------------------------------
 Center     Atomic      Atomic             Coordinates (Angstroms)
 Number     Number       Type             X           Y           Z
 ---------------------------------------------------------------------
      1         29           0        0.000000    0.000000    0.259459
      2          8           0        0.000000    0.000000   -0.940541
 ---------------------------------------------------------------------

 SCF Done:  E(ROHF) =  -1727.65552256     A.U. after   21 cycles
 E2 =    -0.1434798646D+01 EUMP2 =    -0.17290903212089D+04
 CCSD(T)
 CCSD(T)= -0.17289717175D+04

 Unable to determine electronic state:  an orbital has unidentified symmetry.
 Alpha  occ. eigenvalues -- -332.71476 -41.93609 -36.08224 -36.07363 -36.05159
 Alpha  occ. eigenvalues --  -20.61314  -5.45254  -3.70971  -3.64191  -3.60005
 Alpha  occ. eigenvalues --   -1.36291  -0.88515  -0.84981  -0.75955  -0.71111
 Alpha  occ. eigenvalues --   -0.70792  -0.50242  -0.46372  -0.35270
 Alpha virt. eigenvalues --    0.00627   0.02780   0.02887   0.03385   0.05289
 Alpha virt. eigenvalues --    0.09393   0.09775   0.11936   0.13778   0.13801
 Alpha virt. eigenvalues --    0.13802   0.14007   0.14264   0.18840   0.22052

 Mulliken charges and spin densities:
               1          2
     1  Cu   0.616627   0.480721
     2  O   -0.616627   0.519279
 Sum of Mulliken charges =  -0.00000   1.00000

 Dipole moment (field-independent basis, Debye):
    X=              0.0000    Y=              0.0000    Z=              3.1977  Tot=              3.1977
 Quadrupole moment (field-independent basis, Debye-Ang):
   XX=            -19.2477   YY=            -18.1348   ZZ=            -18.7322
   XY=              0.0000   XZ=              0.0000   YZ=              0.0000

 1\1\GINC-C505-134\SP\ROCCSD(T)-RW\Gen\Cu1O1(2)\GWANG18\26-Mar-2018\0\\
 #P ROCCSD(T)=(MaxCyc=150, Window=(7,0))/Gen SCF=(maxcycle=400) Integra
 l(DKHSO, NoXCTest) Pop=Regular MaxDisk=500GB Guess=Read IOp(5/15=2)\\C
 uO\\0,2\Cu,0,0.,0.,0.\O,0,0.,0.,1.2\\Version=ES64L-G16RevA.03\HF=-1727
 .6555226\MP2=-1729.0903212\MP3=-1728.8196653\PUHF=-1727.6555226\PMP2-0
 =-1729.0903212\MP4SDQ=-1729.0005791\CCSD=-1728.9172901\CCSD(T)=-1728.9
 717175\RMSD=7.087e-10\PG=C*V [C*(O1Cu1)]\\@

 Normal termination of Gaussian 16 at Mon Mar 26 01:11:38 2018.
