 Gaussian 16, Revision A.03,
 Gaussian 16:  ES64L-G16RevA.03 25-Dec-2016

 ----------------------------------------------------------------------
 #P ROCCSD(T)=(maxcyc=150, Full, SaveAmplitudes, ReadAmplitudes)/Gen 5d
  7f SCF=(maxcycles=300) Integral(NoXCTest) MaxDisk=500GB Pop=Regular P
 seudo=Read Guess=Read IOp(5/15=2)
 ----------------------------------------------------------------------

 ---
 MnH
 ---
 Symbolic Z-matrix:
 Charge =  0 Multiplicity = 7

                         Standard orientation:
 ---------------------------------------------------------------------
 Center     Atomic      Atomic             Coordinates (Angstroms)
 Number     Number       Type             X           Y           Z
 ---------------------------------------------------------------------
      1         25           0        0.000000    0.000000    0.038462
      2          1           0        0.000000    0.000000   -0.961538
 ---------------------------------------------------------------------

 SCF Done:  E(ROHF) =  -103.961269239     A.U. after   30 cycles
 E2 =    -0.6333991314D+00 EUMP2 =    -0.10459466837025D+03
 CCSD(T)
 CCSD(T)= -0.10460883071D+03

 The electronic state is 7-SG.
 Alpha  occ. eigenvalues --   -4.09421  -2.77157  -2.74573  -2.74573  -0.71450
 Alpha  occ. eigenvalues --   -0.63932  -0.63932  -0.62671  -0.62671  -0.39125
 Alpha  occ. eigenvalues --   -0.21869
 Alpha virt. eigenvalues --    0.01192   0.01192   0.01942   0.03464   0.05619
 Alpha virt. eigenvalues --    0.05619   0.08487   0.08487   0.08493   0.08800
 Alpha virt. eigenvalues --    0.08800   0.08855   0.14275   0.22177   0.22177

 Mulliken charges and spin densities:
               1          2
     1  Mn   0.607934   5.955447
     2  H   -0.607934   0.044553
 Sum of Mulliken charges =  -0.00000   6.00000

 Dipole moment (field-independent basis, Debye):
    X=              0.0000    Y=              0.0000    Z=             -1.1523  Tot=              1.1523
 Quadrupole moment (field-independent basis, Debye-Ang):
   XX=            -16.0240   YY=            -16.0240   ZZ=            -25.5276
   XY=              0.0000   XZ=              0.0000   YZ=              0.0000

 \\#P ROCCSD(T)=(maxcyc=150, Full, SaveAmplitudes, ReadAmplitudes)/Gen
 5903839\CCSD=-104.5901253\CCSD(T)=-104.6088307\RMSD=2.897e-09\PG=C*V [
 Normal termination of Gaussian 16 at Sun Feb 25 17:29:55 2018.
