 Gaussian 16, Revision A.03,
 Gaussian 16:  ES64L-G16RevA.03 25-Dec-2016

 ----------------------------------------------------------------------
 #P ROCCSD(T)=(maxcyc=150, Full)/Gen 5d 7f SCF=(maxcycles=300) Integral
 (NoXCTest, DKHSO) MaxDisk=500GB Pop=Regular IOp(5/15=2) Guess=Read
 ----------------------------------------------------------------------

 ---
 CrH
 ---
 Symbolic Z-matrix:
 Charge =  0 Multiplicity = 6

                         Standard orientation:
 ---------------------------------------------------------------------
 Center     Atomic      Atomic             Coordinates (Angstroms)
 Number     Number       Type             X           Y           Z
 ---------------------------------------------------------------------
      1         24           0        0.000000    0.000000    0.060000
      2          1           0        0.000000    0.000000   -1.440000
 ---------------------------------------------------------------------

 SCF Done:  E(ROHF) =  -1050.19298257     A.U. after   25 cycles
 E2 =    -0.9911102792D+00 EUMP2 =    -0.10511840928521D+04
 CCSD(T)
 CCSD(T)= -0.10512119489D+04

 The electronic state is 6-SG.
 Alpha  occ. eigenvalues -- -222.17328 -26.76495 -22.39914 -22.39914 -22.39856
 Alpha  occ. eigenvalues --   -3.64073  -2.39505  -2.39505  -2.36104  -0.51470
 Alpha  occ. eigenvalues --   -0.51470  -0.48510  -0.48510  -0.42785  -0.25523
 Alpha virt. eigenvalues --    0.01386   0.01386   0.01873   0.02138   0.04403
 Alpha virt. eigenvalues --    0.04958   0.04958   0.04990   0.04990   0.05261
 Alpha virt. eigenvalues --    0.05261   0.06208   0.08501   0.11809   0.15061

 Mulliken charges and spin densities:
               1          2
     1  Cr   0.401082   4.977543
     2  H   -0.401082   0.022457
 Sum of Mulliken charges =  -0.00000   5.00000

 Dipole moment (field-independent basis, Debye):
    X=              0.0000    Y=              0.0000    Z=              1.8586  Tot=              1.8586
 Quadrupole moment (field-independent basis, Debye-Ang):
   XX=            -17.2189   YY=            -17.2189   ZZ=            -22.5198
   XY=             -0.0000   XZ=              0.0000   YZ=              0.0000

 \\#P ROCCSD(T)=(maxcyc=150, Full)/Gen 5d 7f SCF=(maxcycles=300) Integr
 Normal termination of Gaussian 16 at Wed Feb 14 05:14:14 2018.
