 Gaussian 16, Revision A.03,
 Gaussian 16:  ES64L-G16RevA.03 25-Dec-2016

 ----------------------------------------------------------------------
 #P ROCCSD(T)=(maxcyc=150, Full)/Gen 5d 7f SCF=(maxcycles=300) Integral
 (NoXCTest) MaxDisk=500GB Pop=Regular Pseudo=Read IOp(5/15=2) Guess=Rea
 d
 ----------------------------------------------------------------------

 ---
 ScH
 ---
 Symbolic Z-matrix:
 Charge =  0 Multiplicity = 1

                         Standard orientation:
 ---------------------------------------------------------------------
 Center     Atomic      Atomic             Coordinates (Angstroms)
 Number     Number       Type             X           Y           Z
 ---------------------------------------------------------------------
      1         21           0        0.000000    0.000000    0.086364
      2          1           0        0.000000    0.000000   -1.813636
 ---------------------------------------------------------------------

 SCF Done:  E(ROHF) =  -46.7948404615     A.U. after   10 cycles
 E2 =    -0.4196823230D+00 EUMP2 =    -0.47214522784561D+02
 CCSD(T)
 CCSD(T)= -0.47259072642D+02

 The electronic state is 1-SG.
 Alpha  occ. eigenvalues --   -2.74117  -1.67482  -1.67482  -1.67339  -0.39244
 Alpha  occ. eigenvalues --   -0.23712
 Alpha virt. eigenvalues --    0.01067   0.01067   0.01394   0.01991   0.02836
 Alpha virt. eigenvalues --    0.02836   0.02936   0.02936   0.02974   0.04013
 Alpha virt. eigenvalues --    0.04013   0.04086   0.07031   0.07031   0.07688

 Mulliken charges and spin densities:
               1          2
     1  Sc   0.255417   0.000000
     2  H   -0.255417   0.000000
 Sum of Mulliken charges =  -0.00000   0.00000

 Dipole moment (field-independent basis, Debye):
    X=              0.0000    Y=              0.0000    Z=              1.8226  Tot=              1.8226
 Quadrupole moment (field-independent basis, Debye-Ang):
   XX=            -22.8235   YY=            -22.8235   ZZ=            -27.4972
   XY=              0.0000   XZ=              0.0000   YZ=              0.0000

 P ROCCSD(T)=(maxcyc=150, Full)/Gen 5d 7f SCF=(maxcycles=300) Integral(
 PMP2-0=-47.2145228\MP4SDQ=-47.2393358\CCSD=-47.2395416\CCSD(T)=-47.259
 Normal termination of Gaussian 16 at Wed Feb 14 07:14:18 2018.
