 Gaussian 16, Revision A.03,
 Gaussian 16:  ES64L-G16RevA.03 25-Dec-2016

 ----------------------------------------------------------------------
 #P ROCCSD(T)=(MaxCyc=150, Full)/Gen SCF=(maxcycle=400) Integral(DKHSO,
  NoXCTest) Pop=Regular MaxDisk=500GB Guess=Read IOp(5/15=2)
 ----------------------------------------------------------------------

 ---
 NiO
 ---
 Symbolic Z-matrix:
 Charge =  0 Multiplicity = 3

                         Standard orientation:
 ---------------------------------------------------------------------
 Center     Atomic      Atomic             Coordinates (Angstroms)
 Number     Number       Type             X           Y           Z
 ---------------------------------------------------------------------
      1         28           0        0.000000    0.000000    0.333333
      2          8           0        0.000000    0.000000   -1.166667
 ---------------------------------------------------------------------

 SCF Done:  E(ROHF) =  -1593.88995219     A.U. after   17 cycles
 E2 =    -0.1665021971D+01 EUMP2 =    -0.15955549741619D+04
 CCSD(T)
 CCSD(T)= -0.15955459490D+04

 The electronic state is 3-SG.
 Alpha  occ. eigenvalues -- -308.80362 -38.67419 -33.15352 -33.11925 -33.11925
 Alpha  occ. eigenvalues --  -20.48808  -5.10824  -3.48463  -3.39815  -3.39815
 Alpha  occ. eigenvalues --   -1.19000  -0.79121  -0.79121  -0.71262  -0.69055
 Alpha  occ. eigenvalues --   -0.69055  -0.39601  -0.39601  -0.37796
 Alpha virt. eigenvalues --   -0.04272   0.02447   0.02447   0.02575   0.04262
 Alpha virt. eigenvalues --    0.08560   0.08560   0.10799   0.12352   0.12352
 Alpha virt. eigenvalues --    0.13262   0.13262   0.15572   0.16476   0.26388

 Mulliken charges and spin densities:
               1          2
     1  Ni   1.129845   1.835732
     2  O   -1.129845   0.164268
 Sum of Mulliken charges =  -0.00000   2.00000

 Dipole moment (field-independent basis, Debye):
    X=              0.0000    Y=              0.0000    Z=              7.3710  Tot=              7.3710
 Quadrupole moment (field-independent basis, Debye-Ang):
   XX=            -18.5458   YY=            -18.5458   ZZ=            -20.5047
   XY=              0.0000   XZ=              0.0000   YZ=              0.0000

 \\#P ROCCSD(T)=(MaxCyc=150, Full)/Gen SCF=(maxcycle=400) Integral(DKHS
 MP2-0=-1595.5549742\MP4SDQ=-1595.5124863\CCSD=-1595.4870304\CCSD(T)=-1
 Normal termination of Gaussian 16 at Fri Mar 16 08:07:53 2018.
