 Gaussian 16, Revision A.03,
 Gaussian 16:  ES64L-G16RevA.03 25-Dec-2016

 ----------------------------------------------------------------------
 #P ROCCSD(T)=(MaxCyc=150, Full)/Gen SCF=(maxcycle=400, vshift=200) Pse
 udo=Read Integral(NoXCTest) Pop=Regular MaxDisk=500GB
 ----------------------------------------------------------------------

 ---
 ZnO
 ---
 Symbolic Z-matrix:
 Charge =  0 Multiplicity = 1

                         Standard orientation:
 ---------------------------------------------------------------------
 Center     Atomic      Atomic             Coordinates (Angstroms)
 Number     Number       Type             X           Y           Z
 ---------------------------------------------------------------------
      1         30           0        0.000000    0.000000    0.273684
      2          8           0        0.000000    0.000000   -1.026316
 ---------------------------------------------------------------------

 SCF Done:  E(ROHF) =  -240.711999007     A.U. after   18 cycles
 E2 =    -0.1419865431D+01 EUMP2 =    -0.24213186443846D+03
 CCSD(T)
 CCSD(T)= -0.24205718513D+03

 The electronic state is 1-SG.
 Alpha  occ. eigenvalues --   -5.93649  -4.03414  -4.00303  -4.00303  -1.29399
 Alpha  occ. eigenvalues --   -0.89158  -0.89158  -0.83792  -0.83792  -0.80087
 Alpha  occ. eigenvalues --   -0.43134  -0.43134  -0.39052
 Alpha virt. eigenvalues --   -0.02422   0.02805   0.02805   0.03262   0.04024
 Alpha virt. eigenvalues --    0.09077   0.09077   0.12453   0.17083   0.17936
 Alpha virt. eigenvalues --    0.18409   0.18409   0.19499   0.19499   0.23102

 Mulliken charges and spin densities:
               1          2
     1  Zn   1.067223   0.000000
     2  O   -1.067223   0.000000
 Sum of Mulliken charges =  -0.00000   0.00000

 Dipole moment (field-independent basis, Debye):
    X=              0.0000    Y=              0.0000    Z=              5.6510  Tot=              5.6510
 Quadrupole moment (field-independent basis, Debye-Ang):
   XX=            -17.9929   YY=            -17.9929   ZZ=            -19.6101
   XY=              0.0000   XZ=              0.0000   YZ=              0.0000

 P ROCCSD(T)=(MaxCyc=150, Full)/Gen SCF=(maxcycle=400, vshift=200) Pseu
 644\MP4SDQ=-242.0548754\CCSD=-242.0070326\CCSD(T)=-242.0571851\RMSD=6.
 Normal termination of Gaussian 16 at Fri Apr 13 21:45:59 2018.
