 Gaussian 16, Revision A.03,
 Gaussian 16:  ES64L-G16RevA.03 25-Dec-2016

 ----------------------------------------------------------------------
 #P ROCCSD(T)=(MaxCyc=150, Full)/Gen SCF=(maxcycle=400, vshift=200) Pse
 udo=Read Integral(NoXCTest) Pop=Regular MaxDisk=500GB
 ----------------------------------------------------------------------

 ---
 ZnO
 ---
 Symbolic Z-matrix:
 Charge =  0 Multiplicity = 1

                         Standard orientation:
 ---------------------------------------------------------------------
 Center     Atomic      Atomic             Coordinates (Angstroms)
 Number     Number       Type             X           Y           Z
 ---------------------------------------------------------------------
      1         30           0        0.000000    0.000000    0.273684
      2          8           0        0.000000    0.000000   -1.026316
 ---------------------------------------------------------------------

 SCF Done:  E(ROHF) =  -240.708699464     A.U. after   18 cycles
 E2 =    -0.1350776970D+01 EUMP2 =    -0.24205947643421D+03
 CCSD(T)
 CCSD(T)= -0.24198709576D+03

 The electronic state is 1-SG.
 Alpha  occ. eigenvalues --   -5.93665  -4.03443  -4.00321  -4.00321  -1.29454
 Alpha  occ. eigenvalues --   -0.89164  -0.89164  -0.83799  -0.83799  -0.80106
 Alpha  occ. eigenvalues --   -0.43127  -0.43127  -0.39071
 Alpha virt. eigenvalues --   -0.02429   0.03124   0.03124   0.03561   0.04408
 Alpha virt. eigenvalues --    0.10445   0.10445   0.13661   0.18851   0.21373
 Alpha virt. eigenvalues --    0.22686   0.22686   0.25452   0.25452   0.30654

 Mulliken charges and spin densities:
               1          2
     1  Zn   1.317723   0.000000
     2  O   -1.317723   0.000000
 Sum of Mulliken charges =  -0.00000   0.00000

 Dipole moment (field-independent basis, Debye):
    X=              0.0000    Y=              0.0000    Z=              5.6651  Tot=              5.6651
 Quadrupole moment (field-independent basis, Debye-Ang):
   XX=            -18.0017   YY=            -18.0017   ZZ=            -19.6191
   XY=              0.0000   XZ=              0.0000   YZ=              0.0000

 P ROCCSD(T)=(MaxCyc=150, Full)/Gen SCF=(maxcycle=400, vshift=200) Pseu
 94764\MP4SDQ=-241.9885022\CCSD=-241.9395706\CCSD(T)=-241.9870958\RMSD=
 Normal termination of Gaussian 16 at Fri Apr 13 19:23:13 2018.
