 Gaussian 16, Revision A.03,
 Gaussian 16:  ES64L-G16RevA.03 25-Dec-2016

 ----------------------------------------------------------------------
 #P ROCCSD(T)=(maxcyc=150, Full, SaveAmplitudes, ReadAmplitudes)/Gen 5d
  7f SCF=(maxcycles=300) Integral(NoXCTest) MaxDisk=500GB Pop=Regular P
 seudo=Read Guess=Read
 ----------------------------------------------------------------------

 ---
 CrO
 ---
 Symbolic Z-matrix:
 Charge =  0 Multiplicity = 5

                         Standard orientation:
 ---------------------------------------------------------------------
 Center     Atomic      Atomic             Coordinates (Angstroms)
 Number     Number       Type             X           Y           Z
 ---------------------------------------------------------------------
      1         24           0        0.000000    0.000000    0.325000
      2          8           0        0.000000    0.000000   -0.975000
 ---------------------------------------------------------------------

 SCF Done:  E(ROHF) =  -101.889431162     A.U. after   22 cycles
 E2 =    -0.9358525950D+00 EUMP2 =    -0.10282528375672D+03
 CCSD(T)
 CCSD(T)= -0.10283628277D+03

 Unable to determine electronic state:  an orbital has unidentified symmetry.
 Alpha  occ. eigenvalues --   -3.67353  -2.44265  -2.42676  -2.39979  -1.25551
 Alpha  occ. eigenvalues --   -0.68698  -0.59943  -0.59677  -0.51326  -0.50935
 Alpha  occ. eigenvalues --   -0.35459  -0.27320
 Alpha virt. eigenvalues --    0.01247   0.01959   0.02296   0.02633   0.04690
 Alpha virt. eigenvalues --    0.05005   0.05419   0.05419   0.05520   0.05679
 Alpha virt. eigenvalues --    0.07635   0.07971   0.10333   0.13778   0.14643

 Mulliken charges and spin densities:
               1          2
     1  Cr   0.904717   3.864073
     2  O   -0.904717   0.135927
 Sum of Mulliken charges =   0.00000   4.00000

 Dipole moment (field-independent basis, Debye):
    X=              0.0000    Y=              0.0000    Z=              1.7440  Tot=              1.7440
 Quadrupole moment (field-independent basis, Debye-Ang):
   XX=            -21.4322   YY=            -19.6869   ZZ=            -23.6061
   XY=              0.0000   XZ=              0.0000   YZ=              0.0000

 \\#P ROCCSD(T)=(maxcyc=150, Full, SaveAmplitudes, ReadAmplitudes)/Gen
 MP2-0=-102.8252838\CCSD=-102.7919399\CCSD(T)=-102.8362828\RMSD=7.027e-
 Normal termination of Gaussian 16 at Tue Mar 13 03:35:20 2018.
