 Gaussian 16, Revision A.03,
 Gaussian 16:  ES64L-G16RevA.03 25-Dec-2016

 ----------------------------------------------------------------------
 #P ROCCSD(T)=(maxcyc=150, Full, SaveAmplitudes, ReadAmplitudes)/Gen 5d
  7f SCF=(maxcycles=300) Integral(NoXCTest) MaxDisk=500GB Pop=Regular P
 seudo=Read Guess=Read IOp(5/15=2)
 ----------------------------------------------------------------------

 ---
 CrO
 ---
 Symbolic Z-matrix:
 Charge =  0 Multiplicity = 5

                         Standard orientation:
 ---------------------------------------------------------------------
 Center     Atomic      Atomic             Coordinates (Angstroms)
 Number     Number       Type             X           Y           Z
 ---------------------------------------------------------------------
      1         24           0        0.000000    0.000000    0.350000
      2          8           0        0.000000    0.000000   -1.050000
 ---------------------------------------------------------------------

 SCF Done:  E(ROHF) =  -101.815034891     A.U. after   29 cycles
 E2 =    -0.8762311330D+00 EUMP2 =    -0.10269126602439D+03
 CCSD(T)
 CCSD(T)= -0.10270881585D+03

 Unable to determine electronic state:  an orbital has unidentified symmetry.
 Alpha  occ. eigenvalues --   -3.74772  -2.50114  -2.45920  -2.45297  -1.23859
 Alpha  occ. eigenvalues --   -0.65322  -0.56935  -0.53704  -0.53469  -0.52055
 Alpha  occ. eigenvalues --   -0.38521  -0.28564
 Alpha virt. eigenvalues --    0.01074   0.01864   0.02191   0.03060   0.04933
 Alpha virt. eigenvalues --    0.05881   0.06799   0.07673   0.07680   0.07969
 Alpha virt. eigenvalues --    0.08507   0.09181   0.12535   0.15875   0.17895

 Mulliken charges and spin densities:
               1          2
     1  Cr   0.963842   3.802076
     2  O   -0.963842   0.197924
 Sum of Mulliken charges =  -0.00000   4.00000

 Dipole moment (field-independent basis, Debye):
    X=              0.0000    Y=              0.0000    Z=              3.1026  Tot=              3.1026
 Quadrupole moment (field-independent basis, Debye-Ang):
   XX=            -21.0296   YY=            -19.7457   ZZ=            -24.1744
   XY=              0.0000   XZ=              0.0000   YZ=              0.0000

 \\#P ROCCSD(T)=(maxcyc=150, Full, SaveAmplitudes, ReadAmplitudes)/Gen
 =-102.6643184\CCSD(T)=-102.7088158\RMSD=4.475e-09\PG=C*V [C*(O1Cr1)]\\
 Normal termination of Gaussian 16 at Fri Mar  9 16:17:20 2018.
