 Gaussian 16, Revision A.03,
 Gaussian 16:  ES64L-G16RevA.03 25-Dec-2016

 ----------------------------------------------------------------------
 #P ROCCSD(T)=(maxcyc=150, Full)/Gen 5d 7f SCF=(maxcycles=300) Integral
 (NoXCTest, DKHSO) MaxDisk=500GB Pop=Regular IOp(5/15=2) Guess=Read
 ----------------------------------------------------------------------

 ---
 MnH
 ---
 Symbolic Z-matrix:
 Charge =  0 Multiplicity = 7

                         Standard orientation:
 ---------------------------------------------------------------------
 Center     Atomic      Atomic             Coordinates (Angstroms)
 Number     Number       Type             X           Y           Z
 ---------------------------------------------------------------------
      1         25           0        0.000000    0.000000    0.050000
      2          1           0        0.000000    0.000000   -1.250000
 ---------------------------------------------------------------------

 SCF Done:  E(ROHF) =  -1157.87678642     A.U. after   19 cycles
 E2 =    -0.1020009866D+01 EUMP2 =    -0.11588967962901D+04
 CCSD(T)
 CCSD(T)= -0.11589035199D+04

 The electronic state is 7-SG.
 Alpha  occ. eigenvalues -- -242.48931 -29.59569 -24.94977 -24.94977 -24.94854
 Alpha  occ. eigenvalues --   -4.08624  -2.74207  -2.73632  -2.73632  -0.66346
 Alpha  occ. eigenvalues --   -0.63300  -0.63300  -0.63040  -0.63040  -0.41613
 Alpha  occ. eigenvalues --   -0.24280
 Alpha virt. eigenvalues --    0.01315   0.01315   0.01956   0.03131   0.05157
 Alpha virt. eigenvalues --    0.05157   0.05716   0.05831   0.05831   0.06172
 Alpha virt. eigenvalues --    0.06172   0.08356   0.13981   0.15113   0.17897

 Mulliken charges and spin densities:
               1          2
     1  Mn   0.441315   5.913092
     2  H   -0.441315   0.086908
 Sum of Mulliken charges =  -0.00000   6.00000

 Dipole moment (field-independent basis, Debye):
    X=              0.0000    Y=              0.0000    Z=             -0.0385  Tot=              0.0385
 Quadrupole moment (field-independent basis, Debye-Ang):
   XX=            -16.2457   YY=            -16.2457   ZZ=            -25.6445
   XY=              0.0000   XZ=              0.0000   YZ=              0.0000

 \\#P ROCCSD(T)=(maxcyc=150, Full)/Gen 5d 7f SCF=(maxcycles=300) Integr
 Normal termination of Gaussian 16 at Wed Feb 14 23:35:24 2018.
