 Gaussian 16, Revision A.03,
 Gaussian 16:  ES64L-G16RevA.03 25-Dec-2016

 ----------------------------------------------------------------------
 #P ROCCSD(T)=(MaxCyc=150, Full)/Gen SCF=(maxcycle=400) Integral(DKHSO,
  NoXCTest) Pop=Regular MaxDisk=500GB Guess=Read IOp(5/15=2)
 ----------------------------------------------------------------------

 ---
 ZnO
 ---
 Symbolic Z-matrix:
 Charge =  0 Multiplicity = 1

                         Standard orientation:
 ---------------------------------------------------------------------
 Center     Atomic      Atomic             Coordinates (Angstroms)
 Number     Number       Type             X           Y           Z
 ---------------------------------------------------------------------
      1         30           0        0.000000    0.000000    0.273684
      2          8           0        0.000000    0.000000   -1.026316
 ---------------------------------------------------------------------

 SCF Done:  E(ROHF) =  -1868.88688960     A.U. after   10 cycles
 E2 =    -0.1941887673D+01 EUMP2 =    -0.18708287772725D+04
 CCSD(T)
 CCSD(T)= -0.18707267450D+04

 The electronic state is 1-SG.
 Alpha  occ. eigenvalues -- -357.62856 -45.41302 -39.21333 -39.21263 -39.21263
 Alpha  occ. eigenvalues --  -20.51255  -5.89092  -3.98949  -3.95682  -3.95682
 Alpha  occ. eigenvalues --   -1.27937  -0.89035  -0.89035  -0.83601  -0.83601
 Alpha  occ. eigenvalues --   -0.79869  -0.43149  -0.43149  -0.39073
 Alpha virt. eigenvalues --   -0.02349   0.02807   0.02807   0.03289   0.04024
 Alpha virt. eigenvalues --    0.09087   0.09087   0.12464   0.17117   0.17931
 Alpha virt. eigenvalues --    0.18411   0.18411   0.19486   0.19486   0.23118

 Mulliken charges and spin densities:
               1          2
     1  Zn   1.064649  -0.000000
     2  O   -1.064649   0.000000
 Sum of Mulliken charges =  -0.00000  -0.00000

 Dipole moment (field-independent basis, Debye):
    X=              0.0000    Y=              0.0000    Z=              5.6305  Tot=              5.6305
 Quadrupole moment (field-independent basis, Debye-Ang):
   XX=            -18.2137   YY=            -18.2137   ZZ=            -19.8280
   XY=             -0.0000   XZ=              0.0000   YZ=              0.0000

 P ROCCSD(T)=(MaxCyc=150, Full)/Gen SCF=(maxcycle=400) Integral(DKHSO,
 -0=-1870.8287773\MP4SDQ=-1870.7303008\CCSD=-1870.6738314\CCSD(T)=-1870
 Normal termination of Gaussian 16 at Sat Mar 17 12:20:28 2018.
