 Gaussian 16, Revision A.03,
 Gaussian 16:  ES64L-G16RevA.03 25-Dec-2016

 ----------------------------------------------------------------------
 #P ROCCSD(T)=(maxcyc=150, Full)/Gen 5d 7f SCF=(maxcycles=300) Integral
 (NoXCTest) MaxDisk=500GB Pop=Regular Pseudo=Read IOp(5/15=2) Guess=Rea
 d
 ----------------------------------------------------------------------

 ---
 ScH
 ---
 Symbolic Z-matrix:
 Charge =  0 Multiplicity = 1

                         Standard orientation:
 ---------------------------------------------------------------------
 Center     Atomic      Atomic             Coordinates (Angstroms)
 Number     Number       Type             X           Y           Z
 ---------------------------------------------------------------------
      1         21           0        0.000000    0.000000    0.086364
      2          1           0        0.000000    0.000000   -1.813636
 ---------------------------------------------------------------------

 SCF Done:  E(ROHF) =  -46.7878539304     A.U. after   12 cycles
 E2 =    -0.4094286197D+00 EUMP2 =    -0.47197282550176D+02
 CCSD(T)
 CCSD(T)= -0.47243802206D+02

 The electronic state is 1-SG.
 Alpha  occ. eigenvalues --   -2.76561  -1.67027  -1.67027  -1.66874  -0.39360
 Alpha  occ. eigenvalues --   -0.23594
 Alpha virt. eigenvalues --    0.01061   0.01061   0.01501   0.02225   0.03566
 Alpha virt. eigenvalues --    0.03805   0.03805   0.03927   0.03927   0.04409
 Alpha virt. eigenvalues --    0.04409   0.04613   0.07800   0.07800   0.08726

 Mulliken charges and spin densities:
               1          2
     1  Sc   0.336152   0.000000
     2  H   -0.336152   0.000000
 Sum of Mulliken charges =  -0.00000   0.00000

 Dipole moment (field-independent basis, Debye):
    X=              0.0000    Y=              0.0000    Z=              1.7410  Tot=              1.7410
 Quadrupole moment (field-independent basis, Debye-Ang):
   XX=            -22.9928   YY=            -22.9928   ZZ=            -27.7527
   XY=              0.0000   XZ=              0.0000   YZ=              0.0000

 P ROCCSD(T)=(maxcyc=150, Full)/Gen 5d 7f SCF=(maxcycles=300) Integral(
 PMP2-0=-47.1972826\MP4SDQ=-47.2251374\CCSD=-47.225158\CCSD(T)=-47.2438
 Normal termination of Gaussian 16 at Wed Feb 14 06:29:34 2018.
