 Gaussian 16, Revision A.03,
 Gaussian 16:  ES64L-G16RevA.03 25-Dec-2016

 ----------------------------------------------------------------------
 #P ROCCSD(T)=(maxcyc=150, Full)/Gen 5d 7f SCF=(maxcycles=300) Integral
 (NoXCTest, DKHSO) MaxDisk=500GB Pop=Regular Guess=Read
 ----------------------------------------------------------------------

 -
 O
 -
 Symbolic Z-matrix:
 Charge =  0 Multiplicity = 3

                         Standard orientation:
 ---------------------------------------------------------------------
 Center     Atomic      Atomic             Coordinates (Angstroms)
 Number     Number       Type             X           Y           Z
 ---------------------------------------------------------------------
      1          8           0        0.000000    0.000000    0.000000
 ---------------------------------------------------------------------

 SCF Done:  E(ROHF) =  -74.8594791780     A.U. after    8 cycles
 E2 =    -0.2119232525D+00 EUMP2 =    -0.75071402430475D+02
 CCSD(T)
 CCSD(T)= -0.75091993778D+02

 Unable to determine electronic state:  an orbital has unidentified symmetry.
 Alpha  occ. eigenvalues --  -20.72317  -1.40765  -0.70253  -0.70253  -0.60641
 Alpha virt. eigenvalues --    0.15084   0.15308   0.15308   0.16260   0.62221
 Alpha virt. eigenvalues --    0.62221   0.63817   0.63817   0.64273   0.86093
 Alpha virt. eigenvalues --    0.86093   0.90411   1.03531   1.99499   1.99499

 Mulliken charges and spin densities:
               1          2
     1  O   -0.000000   2.000000
 Sum of Mulliken charges =  -0.00000   2.00000

 Dipole moment (field-independent basis, Debye):
    X=              0.0000    Y=             -0.0000    Z=              0.0000  Tot=              0.0000
 Quadrupole moment (field-independent basis, Debye-Ang):
   XX=             -4.6197   YY=             -4.6197   ZZ=             -5.8634
   XY=              0.0000   XZ=             -0.0000   YZ=              0.0000

 P ROCCSD(T)=(maxcyc=150, Full)/Gen 5d 7f SCF=(maxcycles=300) Integral(
 5.087988\CCSD(T)=-75.0919938\RMSD=2.786e-09\PG=OH [O(O1)]\\@
 Normal termination of Gaussian 16 at Wed Feb 21 16:02:22 2018.
