 Gaussian 16, Revision A.03,
 Gaussian 16:  ES64L-G16RevA.03 25-Dec-2016

 ----------------------------------------------------------------------
 #P ROCCSD(T)=(MaxCyc=150, Full)/Gen SCF=(maxcycle=400, vshift=200) Int
 egral(DKHSO, NoXCTest) Pop=Regular MaxDisk=500GB Guess=Read IOp(5/15=2
 )
 ----------------------------------------------------------------------

 ---
 ZnH
 ---
 Symbolic Z-matrix:
 Charge =  0 Multiplicity = 2

                         Standard orientation:
 ---------------------------------------------------------------------
 Center     Atomic      Atomic             Coordinates (Angstroms)
 Number     Number       Type             X           Y           Z
 ---------------------------------------------------------------------
      1         30           0        0.000000    0.000000    0.045161
      2          1           0        0.000000    0.000000   -1.354839
 ---------------------------------------------------------------------

 SCF Done:  E(ROHF) =  -1794.79196482     A.U. after   25 cycles
 E2 =    -0.1480959357D+01 EUMP2 =    -0.17962729241817D+04
 CCSD(T)
 CCSD(T)= -0.17961957795D+04

 The electronic state is 2-SG.
 Alpha  occ. eigenvalues -- -357.59284 -45.36243 -39.16515 -39.16515 -39.16438
 Alpha  occ. eigenvalues --   -5.83242  -3.91244  -3.91035  -3.91035  -0.80600
 Alpha  occ. eigenvalues --   -0.79822  -0.79822  -0.79473  -0.79473  -0.47650
 Alpha  occ. eigenvalues --   -0.27185
 Alpha virt. eigenvalues --    0.02137   0.02137   0.02764   0.04040   0.07767
 Alpha virt. eigenvalues --    0.07767   0.08898   0.15850   0.18919   0.24369
 Alpha virt. eigenvalues --    0.24369   0.25078   0.25078   0.26083   0.29090

 Mulliken charges and spin densities:
               1          2
     1  Zn   0.307095   0.949442
     2  H   -0.307095   0.050558
 Sum of Mulliken charges =  -0.00000   1.00000

 Dipole moment (field-independent basis, Debye):
    X=              0.0000    Y=              0.0000    Z=              0.2115  Tot=              0.2115
 Quadrupole moment (field-independent basis, Debye-Ang):
   XX=            -14.6747   YY=            -14.6747   ZZ=            -20.9366
   XY=              0.0000   XZ=              0.0000   YZ=              0.0000

 \\#P ROCCSD(T)=(MaxCyc=150, Full)/Gen SCF=(maxcycle=400, vshift=200) I
 \CCSD(T)=-1796.1957795\RMSD=8.700e-09\PG=C*V [C*(H1Zn1)]\\@
 Normal termination of Gaussian 16 at Sat Apr 21 10:18:17 2018.
