 Gaussian 16, Revision A.03,
 Gaussian 16:  ES64L-G16RevA.03 25-Dec-2016

 ----------------------------------------------------------------------
 #P ROCCSD(T)=(MaxCyc=150, Full)/Gen SCF=(maxcycle=400, vshift=200) Int
 egral(DKHSO, NoXCTest) Pop=Regular MaxDisk=500GB Guess=Read
 ----------------------------------------------------------------------

 ---
 ZnH
 ---
 Symbolic Z-matrix:
 Charge =  0 Multiplicity = 2

                         Standard orientation:
 ---------------------------------------------------------------------
 Center     Atomic      Atomic             Coordinates (Angstroms)
 Number     Number       Type             X           Y           Z
 ---------------------------------------------------------------------
      1         30           0        0.000000    0.000000    0.045161
      2          1           0        0.000000    0.000000   -1.354839
 ---------------------------------------------------------------------

 SCF Done:  E(ROHF) =  -1794.79454475     A.U. after   17 cycles
 E2 =    -0.1594515122D+01 EUMP2 =    -0.17963890598739D+04
 CCSD(T)
 CCSD(T)= -0.17963095826D+04

 The electronic state is 2-SG.
 Alpha  occ. eigenvalues -- -357.59292 -45.36219 -39.16486 -39.16486 -39.16411
 Alpha  occ. eigenvalues --   -5.83226  -3.91230  -3.91017  -3.91017  -0.80597
 Alpha  occ. eigenvalues --   -0.79817  -0.79817  -0.79471  -0.79471  -0.47648
 Alpha  occ. eigenvalues --   -0.27187
 Alpha virt. eigenvalues --    0.01947   0.01947   0.02255   0.03333   0.06385
 Alpha virt. eigenvalues --    0.06385   0.06882   0.11861   0.13927   0.15330
 Alpha virt. eigenvalues --    0.15330   0.15496   0.15496   0.18724   0.20835

 Mulliken charges and spin densities:
               1          2
     1  Zn   0.277892   0.935144
     2  H   -0.277892   0.064856
 Sum of Mulliken charges =  -0.00000   1.00000

 Dipole moment (field-independent basis, Debye):
    X=              0.0000    Y=             -0.0000    Z=              0.2123  Tot=              0.2123
 Quadrupole moment (field-independent basis, Debye-Ang):
   XX=            -14.6691   YY=            -14.6691   ZZ=            -20.9381
   XY=             -0.0000   XZ=              0.0000   YZ=              0.0000

 \\#P ROCCSD(T)=(MaxCyc=150, Full)/Gen SCF=(maxcycle=400, vshift=200) I
 MP2-0=-1796.3890599\MP4SDQ=-1796.3162867\CCSD=-1796.278331\CCSD(T)=-17
 Normal termination of Gaussian 16 at Thu May  3 11:21:53 2018.
