 Gaussian 16, Revision A.03,
 Gaussian 16:  ES64L-G16RevA.03 25-Dec-2016

 ----------------------------------------------------------------------
 #P ROCCSD(T)=(MaxCyc=150, Full)/Gen SCF=(maxcycle=400) Integral(DKHSO,
  NoXCTest) Pop=Regular MaxDisk=500GB Guess=Read IOp(5/15=2)
 ----------------------------------------------------------------------

 ---
 CuO
 ---
 Symbolic Z-matrix:
 Charge =  0 Multiplicity = 2

                         Standard orientation:
 ---------------------------------------------------------------------
 Center     Atomic      Atomic             Coordinates (Angstroms)
 Number     Number       Type             X           Y           Z
 ---------------------------------------------------------------------
      1         29           0        0.000000    0.000000    0.367568
      2          8           0        0.000000    0.000000   -1.332432
 ---------------------------------------------------------------------

 SCF Done:  E(ROHF) =  -1728.04620330     A.U. after   20 cycles
 E2 =    -0.1851919226D+01 EUMP2 =    -0.17298981225237D+04
 CCSD(T)
 CCSD(T)= -0.17298051142D+04

 Unable to determine electronic state:  an orbital has unidentified symmetry.
 Alpha  occ. eigenvalues -- -332.52592 -41.70249 -35.84390 -35.84237 -35.83998
 Alpha  occ. eigenvalues --  -20.53219  -5.19962  -3.40959  -3.40429  -3.40148
 Alpha  occ. eigenvalues --   -1.22551  -0.58367  -0.55215  -0.54649  -0.52142
 Alpha  occ. eigenvalues --   -0.52140  -0.47812  -0.41853  -0.40142
 Alpha virt. eigenvalues --   -0.01129   0.02559   0.02689   0.03546   0.04479
 Alpha virt. eigenvalues --    0.08938   0.09205   0.11758   0.13407   0.13414
 Alpha virt. eigenvalues --    0.14436   0.14511   0.14972   0.19062   0.21391

 Mulliken charges and spin densities:
               1          2
     1  Cu   0.745997   0.021204
     2  O   -0.745997   0.978796
 Sum of Mulliken charges =  -0.00000   1.00000

 Dipole moment (field-independent basis, Debye):
    X=              0.0000    Y=              0.0000    Z=              5.6035  Tot=              5.6035
 Quadrupole moment (field-independent basis, Debye-Ang):
   XX=            -17.4617   YY=            -15.9283   ZZ=            -20.4435
   XY=              0.0000   XZ=             -0.0000   YZ=              0.0000

 \\#P ROCCSD(T)=(MaxCyc=150, Full)/Gen SCF=(maxcycle=400) Integral(DKHS
 .8981225\MP4SDQ=-1729.8393719\CCSD=-1729.7540032\CCSD(T)=-1729.8051142
 Normal termination of Gaussian 16 at Sat Mar 24 08:38:28 2018.
