 Gaussian 16, Revision A.03,
 Gaussian 16:  ES64L-G16RevA.03 25-Dec-2016

 ----------------------------------------------------------------------
 #P ROCCSD(T)=(maxcyc=150, Full)/Gen 5d 7f SCF=(maxcycles=300) Integral
 (NoXCTest) MaxDisk=500GB Pop=Regular Pseudo=Read
 ----------------------------------------------------------------------

 ---
 MnH
 ---
 Symbolic Z-matrix:
 Charge =  0 Multiplicity = 7

                         Standard orientation:
 ---------------------------------------------------------------------
 Center     Atomic      Atomic             Coordinates (Angstroms)
 Number     Number       Type             X           Y           Z
 ---------------------------------------------------------------------
      1         25           0        0.000000    0.000000    0.053846
      2          1           0        0.000000    0.000000   -1.346154
 ---------------------------------------------------------------------

 SCF Done:  E(ROHF) =  -104.023175052     A.U. after   26 cycles
 E2 =    -0.5796104353D+00 EUMP2 =    -0.10460278548709D+03
 CCSD(T)
 CCSD(T)= -0.10462434061D+03

 The electronic state is 7-SG.
 Alpha  occ. eigenvalues --   -4.15522  -2.80255  -2.80072  -2.80072  -0.65424
 Alpha  occ. eigenvalues --   -0.63595  -0.63595  -0.63158  -0.63158  -0.41900
 Alpha  occ. eigenvalues --   -0.24904
 Alpha virt. eigenvalues --    0.01361   0.01361   0.02203   0.03233   0.05831
 Alpha virt. eigenvalues --    0.05831   0.08519   0.08519   0.08541   0.08965
 Alpha virt. eigenvalues --    0.08965   0.09226   0.14167   0.21149   0.22743

 Mulliken charges and spin densities:
               1          2
     1  Mn   0.443104   5.951012
     2  H   -0.443104   0.048988
 Sum of Mulliken charges =  -0.00000   6.00000

 Dipole moment (field-independent basis, Debye):
    X=              0.0000    Y=              0.0000    Z=              0.2910  Tot=              0.2910
 Quadrupole moment (field-independent basis, Debye-Ang):
   XX=            -15.9834   YY=            -15.9834   ZZ=            -25.4300
   XY=              0.0000   XZ=              0.0000   YZ=              0.0000

 \\#P ROCCSD(T)=(maxcyc=150, Full)/Gen 5d 7f SCF=(maxcycles=300) Integr
 855\MP4SDQ=-104.6073235\CCSD=-104.6082805\CCSD(T)=-104.6243406\RMSD=2.
 Normal termination of Gaussian 16 at Tue Feb 13 00:34:16 2018.
