 Gaussian 16, Revision A.03,
 Gaussian 16:  ES64L-G16RevA.03 25-Dec-2016

 ----------------------------------------------------------------------
 #P ROCCSD(T)=(maxcyc=150, Full, SaveAmplitudes, ReadAmplitudes)/Gen 5d
  7f SCF=(maxcycles=300) Integral(NoXCTest) MaxDisk=500GB Pop=Regular P
 seudo=Read Guess=Read IOp(5/15=2)
 ----------------------------------------------------------------------

 ---
 TiO
 ---
 Symbolic Z-matrix:
 Charge =  0 Multiplicity = 3

                         Standard orientation:
 ---------------------------------------------------------------------
 Center     Atomic      Atomic             Coordinates (Angstroms)
 Number     Number       Type             X           Y           Z
 ---------------------------------------------------------------------
      1         22           0        0.000000    0.000000    0.320000
      2          8           0        0.000000    0.000000   -0.880000
 ---------------------------------------------------------------------

 SCF Done:  E(ROHF) =  -73.1212814403     A.U. after   24 cycles
 E2 =    -0.7214789991D+00 EUMP2 =    -0.73842760439406D+02
 CCSD(T)
 CCSD(T)= -0.73868980934D+02

 Unable to determine electronic state:  an orbital has unidentified symmetry.
 Alpha  occ. eigenvalues --   -2.95382  -2.01716  -1.80774  -1.80774  -1.12179
 Alpha  occ. eigenvalues --   -0.65738  -0.65738  -0.54588  -0.32905  -0.19942
 Alpha virt. eigenvalues --    0.01266   0.01266   0.02088   0.02818   0.04913
 Alpha virt. eigenvalues --    0.04913   0.05028   0.05198   0.05361   0.05753
 Alpha virt. eigenvalues --    0.05753   0.08496   0.12400   0.14295   0.14841

 Mulliken charges and spin densities:
               1          2
     1  Ti   0.571314   2.060729
     2  O   -0.571314  -0.060729
 Sum of Mulliken charges =  -0.00000   2.00000

 Dipole moment (field-independent basis, Debye):
    X=              0.0000    Y=              0.0000    Z=             -0.7362  Tot=              0.7362
 Quadrupole moment (field-independent basis, Debye-Ang):
   XX=            -22.5601   YY=            -22.5601   ZZ=            -26.5462
   XY=              0.0000   XZ=              0.0000   YZ=              0.0000

 \\#P ROCCSD(T)=(maxcyc=150, Full, SaveAmplitudes, ReadAmplitudes)/Gen
 837659\CCSD(T)=-73.8689809\RMSD=3.001e-09\PG=C*V [C*(O1Ti1)]\\@
 Normal termination of Gaussian 16 at Fri Mar  9 15:40:43 2018.
