 Gaussian 16, Revision A.03,
 Gaussian 16:  ES64L-G16RevA.03 25-Dec-2016

 ----------------------------------------------------------------------
 #P ROCCSD(T)=(maxcyc=150, Full, SaveAmplitudes, ReadAmplitudes)/Gen 5d
  7f SCF=(maxcycles=300) Integral(NoXCTest) MaxDisk=500GB Pop=Regular P
 seudo=Read Guess=Read
 ----------------------------------------------------------------------

 ---
 MnO
 ---
 Symbolic Z-matrix:
 Charge =  0 Multiplicity = 6

                         Standard orientation:
 ---------------------------------------------------------------------
 Center     Atomic      Atomic             Coordinates (Angstroms)
 Number     Number       Type             X           Y           Z
 ---------------------------------------------------------------------
      1         25           0        0.000000    0.000000    0.387879
      2          8           0        0.000000    0.000000   -1.212121
 ---------------------------------------------------------------------

 SCF Done:  E(ROHF) =  -119.180579291     A.U. after   24 cycles
 E2 =    -0.9471130951D+00 EUMP2 =    -0.12012769238594D+03
 CCSD(T)
 CCSD(T)= -0.12015269516D+03

 The electronic state is 6-SG.
 Alpha  occ. eigenvalues --   -4.14811  -2.78816  -2.78816  -2.77924  -1.14589
 Alpha  occ. eigenvalues --   -0.64496  -0.64496  -0.62630  -0.62630  -0.56705
 Alpha  occ. eigenvalues --   -0.35118  -0.35118  -0.34074
 Alpha virt. eigenvalues --   -0.03325   0.01541   0.01541   0.02018   0.03389
 Alpha virt. eigenvalues --    0.05823   0.05823   0.05981   0.05981   0.06295
 Alpha virt. eigenvalues --    0.07219   0.07219   0.11854   0.12855   0.17961

 Mulliken charges and spin densities:
               1          2
     1  Mn   1.182147   4.859681
     2  O   -1.182147   0.140319
 Sum of Mulliken charges =  -0.00000   5.00000

 Dipole moment (field-independent basis, Debye):
    X=              0.0000    Y=              0.0000    Z=              8.2531  Tot=              8.2531
 Quadrupole moment (field-independent basis, Debye-Ang):
   XX=            -18.8307   YY=            -18.8307   ZZ=            -22.9896
   XY=              0.0000   XZ=              0.0000   YZ=              0.0000

 \\#P ROCCSD(T)=(maxcyc=150, Full, SaveAmplitudes, ReadAmplitudes)/Gen
 9.1805793\PMP2-0=-120.1276924\CCSD=-120.1092133\CCSD(T)=-120.1526952\R
 Normal termination of Gaussian 16 at Fri Mar  9 19:08:01 2018.
