 Gaussian 16, Revision A.03,
 Gaussian 16:  ES64L-G16RevA.03 25-Dec-2016

 ----------------------------------------------------------------------
 #P ROCCSD(T)=(maxcyc=150, Full, SaveAmplitudes, ReadAmplitudes)/Gen 5d
  7f SCF=(maxcycles=300) Integral(NoXCTest) MaxDisk=500GB Pop=Regular P
 seudo=Read Guess=Read
 ----------------------------------------------------------------------

 ---
 CrO
 ---
 Symbolic Z-matrix:
 Charge =  0 Multiplicity = 5

                         Standard orientation:
 ---------------------------------------------------------------------
 Center     Atomic      Atomic             Coordinates (Angstroms)
 Number     Number       Type             X           Y           Z
 ---------------------------------------------------------------------
      1         24           0        0.000000    0.000000    0.400000
      2          8           0        0.000000    0.000000   -1.200000
 ---------------------------------------------------------------------

 SCF Done:  E(ROHF) =  -102.008810827     A.U. after   24 cycles
 E2 =    -0.9206091897D+00 EUMP2 =    -0.10292942001677D+03
 CCSD(T)
 CCSD(T)= -0.10295410187D+03

 Unable to determine electronic state:  an orbital has unidentified symmetry.
 Alpha  occ. eigenvalues --   -3.78877  -2.49848  -2.45854  -2.42711  -1.17476
 Alpha  occ. eigenvalues --   -0.61785  -0.58441  -0.57190  -0.47883  -0.42823
 Alpha  occ. eigenvalues --   -0.38438  -0.32061
 Alpha virt. eigenvalues --   -0.00332   0.00608   0.01541   0.02669   0.03465
 Alpha virt. eigenvalues --    0.04139   0.05311   0.05312   0.05470   0.05800
 Alpha virt. eigenvalues --    0.05872   0.06344   0.10807   0.12697   0.12803

 Mulliken charges and spin densities:
               1          2
     1  Cr   1.052612   3.898542
     2  O   -1.052612   0.101458
 Sum of Mulliken charges =  -0.00000   4.00000

 Dipole moment (field-independent basis, Debye):
    X=              0.0000    Y=              0.0000    Z=              6.2744  Tot=              6.2744
 Quadrupole moment (field-independent basis, Debye-Ang):
   XX=            -20.5191   YY=            -19.4379   ZZ=            -23.7694
   XY=              0.0000   XZ=              0.0000   YZ=              0.0000

 \\#P ROCCSD(T)=(maxcyc=150, Full, SaveAmplitudes, ReadAmplitudes)/Gen
 2-0=-102.92942\CCSD=-102.9018622\CCSD(T)=-102.9541019\RMSD=7.233e-09\P
 Normal termination of Gaussian 16 at Mon Mar 12 16:12:50 2018.
