 Gaussian 16, Revision A.03,
 Gaussian 16:  ES64L-G16RevA.03 25-Dec-2016

 ----------------------------------------------------------------------
 #P ROCCSD(T)=(maxcyc=150, Full, SaveAmplitudes, ReadAmplitudes)/Gen 5d
  7f SCF=(maxcycles=300) Integral(NoXCTest) MaxDisk=500GB Pop=Regular P
 seudo=Read Guess=Read
 ----------------------------------------------------------------------

 ---
 MnO
 ---
 Symbolic Z-matrix:
 Charge =  0 Multiplicity = 6

                         Standard orientation:
 ---------------------------------------------------------------------
 Center     Atomic      Atomic             Coordinates (Angstroms)
 Number     Number       Type             X           Y           Z
 ---------------------------------------------------------------------
      1         25           0        0.000000    0.000000    0.363636
      2          8           0        0.000000    0.000000   -1.136364
 ---------------------------------------------------------------------

 SCF Done:  E(ROHF) =  -119.145568136     A.U. after   30 cycles
 E2 =    -0.9661377768D+00 EUMP2 =    -0.12011170591279D+03
 CCSD(T)
 CCSD(T)= -0.12012361989D+03

 The electronic state is 6-SG.
 Alpha  occ. eigenvalues --   -4.23313  -2.78845  -2.78845  -2.76394  -1.19813
 Alpha  occ. eigenvalues --   -0.68075  -0.68075  -0.63820  -0.63820  -0.53318
 Alpha  occ. eigenvalues --   -0.38971  -0.38971  -0.33356
 Alpha virt. eigenvalues --   -0.00492   0.01756   0.01756   0.03102   0.03477
 Alpha virt. eigenvalues --    0.05892   0.05892   0.05903   0.05903   0.06237
 Alpha virt. eigenvalues --    0.07059   0.07059   0.11899   0.13579   0.17829

 Mulliken charges and spin densities:
               1          2
     1  Mn   1.198945   4.822636
     2  O   -1.198945   0.177364
 Sum of Mulliken charges =  -0.00000   5.00000

 Dipole moment (field-independent basis, Debye):
    X=              0.0000    Y=              0.0000    Z=              6.1256  Tot=              6.1256
 Quadrupole moment (field-independent basis, Debye-Ang):
   XX=            -19.3855   YY=            -19.3855   ZZ=            -22.9019
   XY=              0.0000   XZ=              0.0000   YZ=              0.0000

 \\#P ROCCSD(T)=(maxcyc=150, Full, SaveAmplitudes, ReadAmplitudes)/Gen
 9.1455681\PMP2-0=-120.1117059\CCSD=-120.0793067\CCSD(T)=-120.1236199\R
 Normal termination of Gaussian 16 at Wed Mar 14 05:57:37 2018.
