 Gaussian 16, Revision A.03,
 Gaussian 16:  ES64L-G16RevA.03 25-Dec-2016

 ----------------------------------------------------------------------
 #P ROCCSD(T)=(MaxCyc=150, FrzINGC)/Gen SCF=(maxcycle=400, vshift=200)
 Integral(DKHSO, NoXCTest) Pop=Regular MaxDisk=500GB Guess=Read IOp(5/1
 5=2)
 ----------------------------------------------------------------------

 ---
 CuH
 ---
 Symbolic Z-matrix:
 Charge =  0 Multiplicity = 1

                         Standard orientation:
 ---------------------------------------------------------------------
 Center     Atomic      Atomic             Coordinates (Angstroms)
 Number     Number       Type             X           Y           Z
 ---------------------------------------------------------------------
      1         29           0        0.000000    0.000000    0.033333
      2          1           0        0.000000    0.000000   -0.966667
 ---------------------------------------------------------------------

 SCF Done:  E(ROHF) =  -1653.57560379     A.U. after   17 cycles
 E2 =    -0.1104294941D+01 EUMP2 =    -0.16546798987301D+04
 CCSD(T)
 CCSD(T)= -0.16545790503D+04

 The electronic state is 1-SG.
 Alpha  occ. eigenvalues -- -332.56029 -41.74428 -35.88597 -35.87944 -35.87944
 Alpha  occ. eigenvalues --   -5.24334  -3.46918  -3.43255  -3.43255  -0.63792
 Alpha  occ. eigenvalues --   -0.57197  -0.57197  -0.54385  -0.54385  -0.32408
 Alpha virt. eigenvalues --    0.01093   0.02928   0.02928   0.03111   0.06386
 Alpha virt. eigenvalues --    0.09997   0.09997   0.10082   0.17334   0.18901
 Alpha virt. eigenvalues --    0.18901   0.20596   0.20596   0.22306   0.26125

 Mulliken charges and spin densities:
               1          2
     1  Cu   0.267112   0.000000
     2  H   -0.267112   0.000000
 Sum of Mulliken charges =  -0.00000   0.00000

 Dipole moment (field-independent basis, Debye):
    X=              0.0000    Y=              0.0000    Z=              2.8016  Tot=              2.8016
 Quadrupole moment (field-independent basis, Debye-Ang):
   XX=            -14.7401   YY=            -14.7401   ZZ=            -14.4637
   XY=              0.0000   XZ=              0.0000   YZ=              0.0000

  ROCCSD(T)=(MaxCyc=150, FrzINGC)/Gen SCF=(maxcycle=400, vshift=200) In
 CCSD(T)=-1654.5790503\RMSD=3.720e-09\PG=C*V [C*(H1Cu1)]\\@
 Normal termination of Gaussian 16 at Sun Apr 22 21:28:00 2018.
