 Gaussian 16, Revision A.03,
 Gaussian 16:  ES64L-G16RevA.03 25-Dec-2016

 ----------------------------------------------------------------------
 #P ROCCSD(T)=(MaxCyc=150, FrzINGC)/Gen SCF=(maxcycle=400, vshift=200)
 Integral(DKHSO, NoXCTest) Pop=Regular MaxDisk=500GB Guess=Read
 ----------------------------------------------------------------------

 ---
 CuH
 ---
 Symbolic Z-matrix:
 Charge =  0 Multiplicity = 1

                         Standard orientation:
 ---------------------------------------------------------------------
 Center     Atomic      Atomic             Coordinates (Angstroms)
 Number     Number       Type             X           Y           Z
 ---------------------------------------------------------------------
      1         29           0        0.000000    0.000000    0.033333
      2          1           0        0.000000    0.000000   -0.966667
 ---------------------------------------------------------------------

 SCF Done:  E(ROHF) =  -1653.57853340     A.U. after   12 cycles
 E2 =    -0.1179584980D+01 EUMP2 =    -0.16547581183801D+04
 CCSD(T)
 CCSD(T)= -0.16546538149D+04

 The electronic state is 1-SG.
 Alpha  occ. eigenvalues -- -332.56039 -41.74410 -35.88571 -35.87923 -35.87923
 Alpha  occ. eigenvalues --   -5.24323  -3.46904  -3.43246  -3.43246  -0.63792
 Alpha  occ. eigenvalues --   -0.57206  -0.57206  -0.54391  -0.54391  -0.32406
 Alpha virt. eigenvalues --    0.00892   0.02558   0.02570   0.02570   0.05015
 Alpha virt. eigenvalues --    0.07870   0.08373   0.08373   0.11744   0.11744
 Alpha virt. eigenvalues --    0.11938   0.12629   0.12629   0.14862   0.18936

 Mulliken charges and spin densities:
               1          2
     1  Cu   0.237863   0.000000
     2  H   -0.237863   0.000000
 Sum of Mulliken charges =  -0.00000   0.00000

 Dipole moment (field-independent basis, Debye):
    X=              0.0000    Y=             -0.0000    Z=              2.7949  Tot=              2.7949
 Quadrupole moment (field-independent basis, Debye-Ang):
   XX=            -14.7317   YY=            -14.7317   ZZ=            -14.4742
   XY=             -0.0000   XZ=              0.0000   YZ=              0.0000

  ROCCSD(T)=(MaxCyc=150, FrzINGC)/Gen SCF=(maxcycle=400, vshift=200) In
 2-0=-1654.7581184\MP4SDQ=-1654.6922968\CCSD=-1654.6135192\CCSD(T)=-165
 Normal termination of Gaussian 16 at Sun May  6 15:27:54 2018.
