 Gaussian 16, Revision A.03,
 Gaussian 16:  ES64L-G16RevA.03 25-Dec-2016

 ----------------------------------------------------------------------
 #P ROCCSD(T)=(MaxCyc=150, FrzINGC)/Gen SCF=(maxcycle=400, vshift=200)
 Integral(DKHSO, NoXCTest) Pop=Regular MaxDisk=500GB Guess=Read IOp(5/1
 5=2)
 ----------------------------------------------------------------------

 ---
 CuH
 ---
 Symbolic Z-matrix:
 Charge =  0 Multiplicity = 1

                         Standard orientation:
 ---------------------------------------------------------------------
 Center     Atomic      Atomic             Coordinates (Angstroms)
 Number     Number       Type             X           Y           Z
 ---------------------------------------------------------------------
      1         29           0        0.000000    0.000000    0.033333
      2          1           0        0.000000    0.000000   -0.966667
 ---------------------------------------------------------------------

 SCF Done:  E(ROHF) =  -1653.57818718     A.U. after   13 cycles
 E2 =    -0.1154868790D+01 EUMP2 =    -0.16547330559672D+04
 CCSD(T)
 CCSD(T)= -0.16546308866D+04

 The electronic state is 1-SG.
 Alpha  occ. eigenvalues -- -332.56030 -41.74406 -35.88571 -35.87920 -35.87920
 Alpha  occ. eigenvalues --   -5.24321  -3.46903  -3.43244  -3.43244  -0.63793
 Alpha  occ. eigenvalues --   -0.57202  -0.57202  -0.54389  -0.54389  -0.32406
 Alpha virt. eigenvalues --    0.01029   0.02659   0.02659   0.02834   0.05891
 Alpha virt. eigenvalues --    0.08744   0.08744   0.09195   0.13157   0.13157
 Alpha virt. eigenvalues --    0.13283   0.14067   0.14067   0.19840   0.23186

 Mulliken charges and spin densities:
               1          2
     1  Cu   0.088877  -0.000000
     2  H   -0.088877  -0.000000
 Sum of Mulliken charges =  -0.00000  -0.00000

 Dipole moment (field-independent basis, Debye):
    X=              0.0000    Y=              0.0000    Z=              2.7962  Tot=              2.7962
 Quadrupole moment (field-independent basis, Debye-Ang):
   XX=            -14.7331   YY=            -14.7331   ZZ=            -14.4723
   XY=              0.0000   XZ=              0.0000   YZ=              0.0000

  ROCCSD(T)=(MaxCyc=150, FrzINGC)/Gen SCF=(maxcycle=400, vshift=200) In
 Normal termination of Gaussian 16 at Sun Apr 22 21:55:14 2018.
