 Gaussian 16, Revision A.03,
 Gaussian 16:  ES64L-G16RevA.03 25-Dec-2016

 ----------------------------------------------------------------------
 #P ROCCSD(T)=(maxcyc=150, Full, SaveAmplitudes, ReadAmplitudes)/Gen 5d
  7f SCF=(maxcycles=300) Integral(NoXCTest) MaxDisk=500GB Pop=Regular P
 seudo=Read Guess=Read
 ----------------------------------------------------------------------

 ---
 CrO
 ---
 Symbolic Z-matrix:
 Charge =  0 Multiplicity = 5

                         Standard orientation:
 ---------------------------------------------------------------------
 Center     Atomic      Atomic             Coordinates (Angstroms)
 Number     Number       Type             X           Y           Z
 ---------------------------------------------------------------------
      1         24           0        0.000000    0.000000    0.450000
      2          8           0        0.000000    0.000000   -1.350000
 ---------------------------------------------------------------------

 SCF Done:  E(ROHF) =  -102.009043742     A.U. after   29 cycles
 E2 =    -0.9087249046D+00 EUMP2 =    -0.10291776864649D+03
 CCSD(T)
 CCSD(T)= -0.10296866346D+03

 Unable to determine electronic state:  an orbital has unidentified symmetry.
 Alpha  occ. eigenvalues --   -3.69219  -2.47518  -2.42502  -2.41762  -1.07886
 Alpha  occ. eigenvalues --   -0.57122  -0.55490  -0.54870  -0.51775  -0.34046
 Alpha  occ. eigenvalues --   -0.32746  -0.32666
 Alpha virt. eigenvalues --   -0.04803   0.00570   0.01159   0.01292   0.03095
 Alpha virt. eigenvalues --    0.04428   0.05190   0.05190   0.05574   0.06082
 Alpha virt. eigenvalues --    0.06157   0.06503   0.10554   0.11254   0.13091

 Mulliken charges and spin densities:
               1          2
     1  Cr   1.129183   3.947467
     2  O   -1.129183   0.052533
 Sum of Mulliken charges =  -0.00000   4.00000

 Dipole moment (field-independent basis, Debye):
    X=              0.0000    Y=              0.0000    Z=              9.8382  Tot=              9.8382
 Quadrupole moment (field-independent basis, Debye-Ang):
   XX=            -19.5409   YY=            -18.6872   ZZ=            -23.9003
   XY=              0.0000   XZ=              0.0000   YZ=              0.0000

 \\#P ROCCSD(T)=(maxcyc=150, Full, SaveAmplitudes, ReadAmplitudes)/Gen
 MP2-0=-102.9177686\CCSD=-102.9141081\CCSD(T)=-102.9686635\RMSD=7.800e-
 Normal termination of Gaussian 16 at Mon Mar 12 16:42:14 2018.
