 Gaussian 16, Revision A.03,
 Gaussian 16:  ES64L-G16RevA.03 25-Dec-2016

 ----------------------------------------------------------------------
 #P ROCCSD(T)=(MaxCyc=150, Full)/Gen SCF=(maxcycle=400, vshift=200) Int
 egral(DKHSO, NoXCTest) Pop=Regular MaxDisk=500GB Guess=Read IOp(5/15=2
 )
 ----------------------------------------------------------------------

 ---
 CuH
 ---
 Symbolic Z-matrix:
 Charge =  0 Multiplicity = 1

                         Standard orientation:
 ---------------------------------------------------------------------
 Center     Atomic      Atomic             Coordinates (Angstroms)
 Number     Number       Type             X           Y           Z
 ---------------------------------------------------------------------
      1         29           0        0.000000    0.000000    0.046667
      2          1           0        0.000000    0.000000   -1.353333
 ---------------------------------------------------------------------

 SCF Done:  E(ROHF) =  -1653.71142213     A.U. after   11 cycles
 E2 =    -0.1592373285D+01 EUMP2 =    -0.16553037954193D+04
 CCSD(T)
 CCSD(T)= -0.16551964711D+04

 The electronic state is 1-SG.
 Alpha  occ. eigenvalues -- -332.50904 -41.68521 -35.82464 -35.82464 -35.82400
 Alpha  occ. eigenvalues --   -5.17893  -3.38760  -3.38075  -3.38075  -0.51631
 Alpha  occ. eigenvalues --   -0.50328  -0.50328  -0.49871  -0.49871  -0.34072
 Alpha virt. eigenvalues --    0.00304   0.02663   0.02663   0.03174   0.05237
 Alpha virt. eigenvalues --    0.09000   0.09012   0.09012   0.13471   0.13489
 Alpha virt. eigenvalues --    0.13489   0.13952   0.13952   0.20165   0.22358

 Mulliken charges and spin densities:
               1          2
     1  Cu   0.330412   0.000000
     2  H   -0.330412   0.000000
 Sum of Mulliken charges =   0.00000   0.00000

 Dipole moment (field-independent basis, Debye):
    X=              0.0000    Y=              0.0000    Z=              3.7605  Tot=              3.7605
 Quadrupole moment (field-independent basis, Debye-Ang):
   XX=            -13.9126   YY=            -13.9126   ZZ=            -15.6822
   XY=              0.0000   XZ=              0.0000   YZ=              0.0000

 P ROCCSD(T)=(MaxCyc=150, Full)/Gen SCF=(maxcycle=400, vshift=200) Inte
 Normal termination of Gaussian 16 at Wed Apr  4 21:01:46 2018.
