 Gaussian 16, Revision A.03,
 Gaussian 16:  ES64L-G16RevA.03 25-Dec-2016

 ----------------------------------------------------------------------
 #P ROCCSD(T)=(maxcyc=150, Full, SaveAmplitudes, ReadAmplitudes)/Gen 5d
  7f SCF=(maxcycles=300) Integral(NoXCTest) MaxDisk=500GB Pop=Regular P
 seudo=Read Guess=Read IOp(5/15=2)
 ----------------------------------------------------------------------

 ---
 MnO
 ---
 Symbolic Z-matrix:
 Charge =  0 Multiplicity = 6

                         Standard orientation:
 ---------------------------------------------------------------------
 Center     Atomic      Atomic             Coordinates (Angstroms)
 Number     Number       Type             X           Y           Z
 ---------------------------------------------------------------------
      1         25           0        0.000000    0.000000    0.290909
      2          8           0        0.000000    0.000000   -0.909091
 ---------------------------------------------------------------------

 SCF Done:  E(ROHF) =  -119.063955844     A.U. after   27 cycles
 E2 =    -0.9569204260D+00 EUMP2 =    -0.12002087627002D+03
 CCSD(T)
 CCSD(T)= -0.12002336807D+03

 The electronic state is 6-SG.
 Alpha  occ. eigenvalues --   -4.07312  -2.75318  -2.72017  -2.72017  -1.28364
 Alpha  occ. eigenvalues --   -0.78267  -0.78267  -0.65869  -0.59692  -0.59692
 Alpha  occ. eigenvalues --   -0.38516  -0.38516  -0.29021
 Alpha virt. eigenvalues --    0.02316   0.02656   0.02656   0.02963   0.07200
 Alpha virt. eigenvalues --    0.08151   0.08151   0.08825   0.08825   0.09484
 Alpha virt. eigenvalues --    0.09484   0.10842   0.11704   0.17174   0.25241

 Mulliken charges and spin densities:
               1          2
     1  Mn   0.656217   4.726381
     2  O   -0.656217   0.273619
 Sum of Mulliken charges =  -0.00000   5.00000

 Dipole moment (field-independent basis, Debye):
    X=              0.0000    Y=              0.0000    Z=              1.2956  Tot=              1.2956
 Quadrupole moment (field-independent basis, Debye-Ang):
   XX=            -20.0977   YY=            -20.0977   ZZ=            -22.2807
   XY=              0.0000   XZ=              0.0000   YZ=              0.0000

 \\#P ROCCSD(T)=(maxcyc=150, Full, SaveAmplitudes, ReadAmplitudes)/Gen
 .9967144\CCSD=-119.9847988\CCSD(T)=-120.0233681\RMSD=7.697e-09\PG=C*V
 Normal termination of Gaussian 16 at Mon Mar 12 14:37:33 2018.
