 Gaussian 16, Revision A.03,
 Gaussian 16:  ES64L-G16RevA.03 25-Dec-2016

 ----------------------------------------------------------------------
 #P ROCCSD(T)=(MaxCyc=150, Window=(7,0))/Gen SCF=(maxcycle=400) Integra
 l(DKHSO, NoXCTest) Pop=Regular MaxDisk=500GB Guess=Read IOp(5/15=2)
 ----------------------------------------------------------------------

 ---
 CuO
 ---
 Symbolic Z-matrix:
 Charge =  0 Multiplicity = 2

                         Standard orientation:
 ---------------------------------------------------------------------
 Center     Atomic      Atomic             Coordinates (Angstroms)
 Number     Number       Type             X           Y           Z
 ---------------------------------------------------------------------
      1         29           0        0.000000    0.000000    0.302703
      2          8           0        0.000000    0.000000   -1.097297
 ---------------------------------------------------------------------

 SCF Done:  E(ROHF) =  -1727.92914585     A.U. after   20 cycles
 E2 =    -0.1389470045D+01 EUMP2 =    -0.17293186158971D+04
 CCSD(T)
 CCSD(T)= -0.17292248661D+04

 Unable to determine electronic state:  an orbital has unidentified symmetry.
 Alpha  occ. eigenvalues -- -332.57919 -41.77269 -35.91169 -35.91089 -35.90581
 Alpha  occ. eigenvalues --  -20.56729  -5.27295  -3.49646  -3.46815  -3.45810
 Alpha  occ. eigenvalues --   -1.30148  -0.69920  -0.66366  -0.62735  -0.57350
 Alpha  occ. eigenvalues --   -0.57345  -0.48730  -0.43371  -0.37022
 Alpha virt. eigenvalues --   -0.00146   0.02709   0.02846   0.03566   0.04934
 Alpha virt. eigenvalues --    0.09321   0.09704   0.12141   0.13741   0.13754
 Alpha virt. eigenvalues --    0.14098   0.14233   0.14491   0.19154   0.21825

 Mulliken charges and spin densities:
               1          2
     1  Cu   0.660182   0.093944
     2  O   -0.660182   0.906056
 Sum of Mulliken charges =  -0.00000   1.00000

 Dipole moment (field-independent basis, Debye):
    X=              0.0000    Y=              0.0000    Z=              4.3520  Tot=              4.3520
 Quadrupole moment (field-independent basis, Debye-Ang):
   XX=            -18.3388   YY=            -16.8693   ZZ=            -18.6402
   XY=              0.0000   XZ=              0.0000   YZ=              0.0000

 1\1\GINC-C502-094\SP\ROCCSD(T)-RW\Gen\Cu1O1(2)\GWANG18\26-Mar-2018\0\\
 #P ROCCSD(T)=(MaxCyc=150, Window=(7,0))/Gen SCF=(maxcycle=400) Integra
 l(DKHSO, NoXCTest) Pop=Regular MaxDisk=500GB Guess=Read IOp(5/15=2)\\C
 uO\\0,2\Cu,0,0.,0.,0.\O,0,0.,0.,1.4\\Version=ES64L-G16RevA.03\HF=-1727
 .9291459\MP2=-1729.3186159\MP3=-1729.0558309\PUHF=-1727.9291459\PMP2-0
 =-1729.3186159\MP4SDQ=-1729.2654659\CCSD=-1729.170935\CCSD(T)=-1729.22
 48661\RMSD=1.683e-10\PG=C*V [C*(O1Cu1)]\\@

 Normal termination of Gaussian 16 at Mon Mar 26 01:36:09 2018.
