 Gaussian 16, Revision A.03,
 Gaussian 16:  ES64L-G16RevA.03 25-Dec-2016

 ----------------------------------------------------------------------
 #P ROCCSD(T)=(maxcyc=150, Full, SaveAmplitudes, ReadAmplitudes)/Gen 5d
  7f SCF=(maxcycles=300) Integral(NoXCTest) MaxDisk=500GB Pop=Regular P
 seudo=Read Guess=Read
 ----------------------------------------------------------------------

 ---
 MnH
 ---
 Symbolic Z-matrix:
 Charge =  0 Multiplicity = 7

                         Standard orientation:
 ---------------------------------------------------------------------
 Center     Atomic      Atomic             Coordinates (Angstroms)
 Number     Number       Type             X           Y           Z
 ---------------------------------------------------------------------
      1         25           0        0.000000    0.000000    0.053846
      2          1           0        0.000000    0.000000   -1.346154
 ---------------------------------------------------------------------

 SCF Done:  E(ROHF) =  -104.215869504     A.U. after   19 cycles
 E2 =    -0.6244914654D+00 EUMP2 =    -0.10484036096929D+03
 CCSD(T)
 CCSD(T)= -0.10486142484D+03

 The electronic state is 7-SG.
 Alpha  occ. eigenvalues --   -4.09079  -2.75433  -2.75102  -2.75102  -0.65076
 Alpha  occ. eigenvalues --   -0.63213  -0.63213  -0.62784  -0.62784  -0.41868
 Alpha  occ. eigenvalues --   -0.25091
 Alpha virt. eigenvalues --    0.01281   0.01281   0.02018   0.03062   0.05107
 Alpha virt. eigenvalues --    0.05107   0.05700   0.05834   0.05834   0.06184
 Alpha virt. eigenvalues --    0.06184   0.08526   0.13893   0.14790   0.17936

 Mulliken charges and spin densities:
               1          2
     1  Mn   0.426052   5.934295
     2  H   -0.426052   0.065705
 Sum of Mulliken charges =   0.00000   6.00000

 Dipole moment (field-independent basis, Debye):
    X=              0.0000    Y=              0.0000    Z=              0.3031  Tot=              0.3031
 Quadrupole moment (field-independent basis, Debye-Ang):
   XX=            -15.8582   YY=            -15.8582   ZZ=            -25.2442
   XY=              0.0000   XZ=              0.0000   YZ=              0.0000

 \\#P ROCCSD(T)=(maxcyc=150, Full, SaveAmplitudes, ReadAmplitudes)/Gen
 .2158695\PMP2-0=-104.840361\CCSD=-104.8436643\CCSD(T)=-104.8614248\RMS
 Normal termination of Gaussian 16 at Mon Feb 26 04:05:16 2018.
