 Gaussian 16, Revision A.03,
 Gaussian 16:  ES64L-G16RevA.03 25-Dec-2016

 ----------------------------------------------------------------------
 #P ROCCSD(T)=(MaxCyc=150, Full)/Gen SCF=(maxcycle=400, vshift=200) Pse
 udo=Read Integral(NoXCTest) Pop=Regular MaxDisk=500GB Guess=Read IOp(5
 /15=2)
 ----------------------------------------------------------------------

 ---
 ZnH
 ---
 Symbolic Z-matrix:
 Charge =  0 Multiplicity = 2

                         Standard orientation:
 ---------------------------------------------------------------------
 Center     Atomic      Atomic             Coordinates (Angstroms)
 Number     Number       Type             X           Y           Z
 ---------------------------------------------------------------------
      1         30           0        0.000000    0.000000    0.038710
      2          1           0        0.000000    0.000000   -1.161290
 ---------------------------------------------------------------------

 SCF Done:  E(ROHF) =  -225.742814025     A.U. after   21 cycles
 E2 =    -0.1099583580D+01 EUMP2 =    -0.22684239760546D+03
 CCSD(T)
 CCSD(T)= -0.22678787903D+03

 The electronic state is 2-SG.
 Alpha  occ. eigenvalues --   -5.89028  -3.97377  -3.96583  -3.96583  -0.83556
 Alpha  occ. eigenvalues --   -0.80860  -0.80860  -0.80791  -0.80791  -0.48996
 Alpha  occ. eigenvalues --   -0.26595
 Alpha virt. eigenvalues --    0.02037   0.02037   0.02406   0.03817   0.06831
 Alpha virt. eigenvalues --    0.06831   0.08033   0.14552   0.17773   0.17809
 Alpha virt. eigenvalues --    0.17809   0.18231   0.18231   0.21921   0.22992

 Mulliken charges and spin densities:
               1          2
     1  Zn   0.249323   0.942608
     2  H   -0.249323   0.057392
 Sum of Mulliken charges =  -0.00000   1.00000

 Dipole moment (field-independent basis, Debye):
    X=              0.0000    Y=              0.0000    Z=             -0.2636  Tot=              0.2636
 Quadrupole moment (field-independent basis, Debye-Ang):
   XX=            -14.4319   YY=            -14.4319   ZZ=            -20.5188
   XY=              0.0000   XZ=              0.0000   YZ=              0.0000

 \\#P ROCCSD(T)=(MaxCyc=150, Full)/Gen SCF=(maxcycle=400, vshift=200) P
 Normal termination of Gaussian 16 at Sat Apr 21 11:52:06 2018.
