 Gaussian 16, Revision A.03,
 Gaussian 16:  ES64L-G16RevA.03 25-Dec-2016

 ----------------------------------------------------------------------
 #P ROCCSD(T)=(MaxCyc=150, Full)/Gen SCF=(maxcycle=400, vshift=200) Pse
 udo=Read Integral(NoXCTest) Pop=Regular MaxDisk=500GB Guess=Read IOp(5
 /15=2)
 ----------------------------------------------------------------------

 ---
 ZnH
 ---
 Symbolic Z-matrix:
 Charge =  0 Multiplicity = 2

                         Standard orientation:
 ---------------------------------------------------------------------
 Center     Atomic      Atomic             Coordinates (Angstroms)
 Number     Number       Type             X           Y           Z
 ---------------------------------------------------------------------
      1         30           0        0.000000    0.000000    0.038710
      2          1           0        0.000000    0.000000   -1.161290
 ---------------------------------------------------------------------

 SCF Done:  E(ROHF) =  -225.742943427     A.U. after   23 cycles
 E2 =    -0.1126120459D+01 EUMP2 =    -0.22686906388591D+03
 CCSD(T)
 CCSD(T)= -0.22681254839D+03

 The electronic state is 2-SG.
 Alpha  occ. eigenvalues --   -5.89027  -3.97376  -3.96582  -3.96582  -0.83554
 Alpha  occ. eigenvalues --   -0.80860  -0.80860  -0.80790  -0.80790  -0.48997
 Alpha  occ. eigenvalues --   -0.26596
 Alpha virt. eigenvalues --    0.01973   0.01973   0.02106   0.03397   0.06405
 Alpha virt. eigenvalues --    0.06405   0.06964   0.11887   0.13998   0.15306
 Alpha virt. eigenvalues --    0.15306   0.15543   0.15543   0.19195   0.20458

 Mulliken charges and spin densities:
               1          2
     1  Zn   0.320237   0.948867
     2  H   -0.320237   0.051133
 Sum of Mulliken charges =  -0.00000   1.00000

 Dipole moment (field-independent basis, Debye):
    X=              0.0000    Y=              0.0000    Z=             -0.2640  Tot=              0.2640
 Quadrupole moment (field-independent basis, Debye-Ang):
   XX=            -14.4297   YY=            -14.4297   ZZ=            -20.5195
   XY=              0.0000   XZ=              0.0000   YZ=              0.0000

 \\#P ROCCSD(T)=(MaxCyc=150, Full)/Gen SCF=(maxcycle=400, vshift=200) P
 Normal termination of Gaussian 16 at Mon Apr 30 08:35:56 2018.
