 Gaussian 16, Revision A.03,
 Gaussian 16:  ES64L-G16RevA.03 25-Dec-2016

 ----------------------------------------------------------------------
 #P ROCCSD(T)=(MaxCyc=150, Full)/Gen SCF=(maxcycle=400, vshift=200) Pse
 udo=Read Integral(NoXCTest) Pop=Regular MaxDisk=500GB Guess=Read IOp(5
 /15=2)
 ----------------------------------------------------------------------

 ---
 ZnH
 ---
 Symbolic Z-matrix:
 Charge =  0 Multiplicity = 2

                         Standard orientation:
 ---------------------------------------------------------------------
 Center     Atomic      Atomic             Coordinates (Angstroms)
 Number     Number       Type             X           Y           Z
 ---------------------------------------------------------------------
      1         30           0        0.000000    0.000000    0.038710
      2          1           0        0.000000    0.000000   -1.161290
 ---------------------------------------------------------------------

 SCF Done:  E(ROHF) =  -225.741738419     A.U. after   32 cycles
 E2 =    -0.1044660895D+01 EUMP2 =    -0.22678639931386D+03
 CCSD(T)
 CCSD(T)= -0.22673280419D+03

 The electronic state is 2-SG.
 Alpha  occ. eigenvalues --   -5.89037  -3.97389  -3.96598  -3.96598  -0.83558
 Alpha  occ. eigenvalues --   -0.80863  -0.80863  -0.80796  -0.80796  -0.49000
 Alpha  occ. eigenvalues --   -0.26594
 Alpha virt. eigenvalues --    0.02164   0.02164   0.02578   0.04155   0.07781
 Alpha virt. eigenvalues --    0.07781   0.08957   0.16089   0.19231   0.24433
 Alpha virt. eigenvalues --    0.24433   0.25157   0.25157   0.26906   0.28459

 Mulliken charges and spin densities:
               1          2
     1  Zn   0.297737   0.957616
     2  H   -0.297737   0.042384
 Sum of Mulliken charges =  -0.00000   1.00000

 Dipole moment (field-independent basis, Debye):
    X=              0.0000    Y=              0.0000    Z=             -0.2622  Tot=              0.2622
 Quadrupole moment (field-independent basis, Debye-Ang):
   XX=            -14.4376   YY=            -14.4376   ZZ=            -20.5120
   XY=              0.0000   XZ=              0.0000   YZ=              0.0000

 \\#P ROCCSD(T)=(MaxCyc=150, Full)/Gen SCF=(maxcycle=400, vshift=200) P
 CCSD(T)=-226.7328042\RMSD=6.107e-09\PG=C*V [C*(H1Zn1)]\\@
 Normal termination of Gaussian 16 at Sat Apr 21 10:58:45 2018.
