 Gaussian 16, Revision A.03,
 Gaussian 16:  ES64L-G16RevA.03 25-Dec-2016

 ----------------------------------------------------------------------
 #P ROCCSD(T)=(maxcyc=150, Full)/Gen 5d 7f SCF=(maxcycles=300, NoVarAcc
 , VShift=300) MaxDisk=100GB Pop=Regular Pseudo=Read Guess=Read IOp(5/1
 5=2)
 ----------------------------------------------------------------------

 --
 Cr
 --
 Symbolic Z-matrix:
 Charge =  0 Multiplicity = 7

                         Standard orientation:
 ---------------------------------------------------------------------
 Center     Atomic      Atomic             Coordinates (Angstroms)
 Number     Number       Type             X           Y           Z
 ---------------------------------------------------------------------
      1         24           0        0.000000    0.000000    0.000000
 ---------------------------------------------------------------------

 SCF Done:  E(ROHF) =  -85.8687318827     A.U. after   43 cycles
 E2 =    -0.5643242136D+00 EUMP2 =    -0.86433056096259D+02
 CCSD(T)
 CCSD(T)= -0.86441692748D+02

 The electronic state is 7-A1G.
 Alpha  occ. eigenvalues --   -3.57721  -2.29070  -2.29070  -2.29070  -0.36960
 Alpha  occ. eigenvalues --   -0.36960  -0.36960  -0.36960  -0.36960  -0.22680
 Alpha virt. eigenvalues --    0.01700   0.01700   0.01700   0.02259   0.05111
 Alpha virt. eigenvalues --    0.05111   0.05111   0.05111   0.05111   0.05739
 Alpha virt. eigenvalues --    0.05739   0.05739   0.11277   0.16247   0.16247

 Mulliken charges and spin densities:
               1          2
     1  Cr  -0.000000   6.000000
 Sum of Mulliken charges =  -0.00000   6.00000

 Dipole moment (field-independent basis, Debye):
    X=              0.0000    Y=              0.0000    Z=              0.0000  Tot=              0.0000
 Quadrupole moment (field-independent basis, Debye-Ang):
   XX=            -16.4357   YY=            -16.4357   ZZ=            -16.4357
   XY=              0.0000   XZ=             -0.0000   YZ=             -0.0000

 1\1\GINC-C506-003\SP\ROCCSD(T)-Full\Gen\Cr1(7)\AANNABE\05-Apr-2018\0\\
 #P ROCCSD(T)=(maxcyc=150, Full)/Gen 5d 7f SCF=(maxcycles=300, NoVarAcc
 , VShift=300) MaxDisk=100GB Pop=Regular Pseudo=Read Guess=Read IOp(5/1
 5=2)\\Cr\\0,7\Cr,0,0.,0.,0.\\Version=ES64L-G16RevA.03\State=7-A1G\HF=-
 85.8687319\MP2=-86.4330561\MP3=-86.4220813\PUHF=-85.8687319\PMP2-0=-86
 .4330561\MP4SDQ=-86.4251238\CCSD=-86.4241669\CCSD(T)=-86.4416927\RMSD=
 9.441e-09\PG=OH [O(Cr1)]\\@

 Normal termination of Gaussian 16 at Thu Apr  5 18:25:05 2018.
