 Gaussian 16, Revision A.03,
 Gaussian 16:  ES64L-G16RevA.03 25-Dec-2016

 ----------------------------------------------------------------------
 #P ROCCSD(T)=(MaxCyc=150, Full)/Gen SCF=(maxcycle=400) Integral(DKHSO,
  NoXCTest) Pop=Regular MaxDisk=500GB Guess=Read
 ----------------------------------------------------------------------

 --
 Cu
 --
 Symbolic Z-matrix:
 Charge =  0 Multiplicity = 2

                         Standard orientation:
 ---------------------------------------------------------------------
 Center     Atomic      Atomic             Coordinates (Angstroms)
 Number     Number       Type             X           Y           Z
 ---------------------------------------------------------------------
      1         29           0        0.000000    0.000000    0.000000
 ---------------------------------------------------------------------

 SCF Done:  E(ROHF) =  -1653.16150963     A.U. after   10 cycles
 E2 =    -0.1579700036D+01 EUMP2 =    -0.16547412096616D+04
 CCSD(T)
 CCSD(T)= -0.16546337659D+04

 Unable to determine electronic state:  an orbital has unidentified symmetry.
 Alpha  occ. eigenvalues -- -332.48876 -41.65891 -35.79831 -35.79831 -35.79830
 Alpha  occ. eigenvalues --   -5.15879  -3.36332  -3.36332  -3.36332  -0.48327
 Alpha  occ. eigenvalues --   -0.48327  -0.48327  -0.48327  -0.48327  -0.24467
 Alpha virt. eigenvalues --    0.02248   0.02248   0.02248   0.02716   0.07509
 Alpha virt. eigenvalues --    0.07509   0.07509   0.12338   0.12338   0.12338
 Alpha virt. eigenvalues --    0.12338   0.12338   0.13381   0.24335   0.24335

 Mulliken charges and spin densities:
               1          2
     1  Cu  -0.000000   1.000000
 Sum of Mulliken charges =  -0.00000   1.00000

 Dipole moment (field-independent basis, Debye):
    X=              0.0000    Y=             -0.0000    Z=             -0.0000  Tot=              0.0000
 Quadrupole moment (field-independent basis, Debye-Ang):
   XX=            -14.2387   YY=            -14.2387   ZZ=            -14.2387
   XY=             -0.0000   XZ=             -0.0000   YZ=             -0.0000

 1\1\GINC-C484-043\SP\ROCCSD(T)-Full\Gen\Cu1(2)\GWANG18\05-May-2018\0\\
 #P ROCCSD(T)=(MaxCyc=150, Full)/Gen SCF=(maxcycle=400) Integral(DKHSO,
  NoXCTest) Pop=Regular MaxDisk=500GB Guess=Read\\Cu\\0,2\Cu,0,0.,0.,0.
 \\Version=ES64L-G16RevA.03\HF=-1653.1615096\MP2=-1654.7412097\MP3=-165
 4.5111018\PUHF=-1653.1615096\PMP2-0=-1654.7412097\MP4SDQ=-1654.6685854
 \CCSD=-1654.5960053\CCSD(T)=-1654.6337659\RMSD=9.572e-10\PG=OH [O(Cu1)
 ]\\@

 Normal termination of Gaussian 16 at Sat May  5 23:04:15 2018.
