 Gaussian 16, Revision A.03,
 Gaussian 16:  ES64L-G16RevA.03 25-Dec-2016

 ----------------------------------------------------------------------
 #P ROHF/Gen SCF=(maxcycle=400) Integral(DKHSO, NoXCTest) Pop=Regular M
 axDisk=500GB IOp(5/15=2)
 ----------------------------------------------------------------------

 --
 Cu
 --
 Symbolic Z-matrix:
 Charge =  0 Multiplicity = 2

                         Standard orientation:
 ---------------------------------------------------------------------
 Center     Atomic      Atomic             Coordinates (Angstroms)
 Number     Number       Type             X           Y           Z
 ---------------------------------------------------------------------
      1         29           0        0.000000    0.000000    0.000000
 ---------------------------------------------------------------------

 SCF Done:  E(ROHF) =  -1653.15919722     A.U. after   16 cycles

 Unable to determine electronic state:  an orbital has unidentified symmetry.
 Alpha  occ. eigenvalues -- -332.48735 -41.65713 -35.79777 -35.79777 -35.79777
 Alpha  occ. eigenvalues --   -5.15322  -3.36078  -3.36078  -3.36078  -0.47870
 Alpha  occ. eigenvalues --   -0.47870  -0.47870  -0.47870  -0.47870  -0.07040
 Alpha virt. eigenvalues --    0.02831   0.02831   0.02831   0.03705   0.10021
 Alpha virt. eigenvalues --    0.10021   0.10021   0.19418   0.20255   0.20255
 Alpha virt. eigenvalues --    0.20255   0.20255   0.20255   0.34087   0.34087

 Mulliken charges and spin densities:
               1          2
     1  Cu  -0.000000   1.000000
 Sum of Mulliken charges =  -0.00000   1.00000

 Dipole moment (field-independent basis, Debye):
    X=              0.0000    Y=             -0.0000    Z=             -0.0000  Tot=              0.0000
 Quadrupole moment (field-independent basis, Debye-Ang):
   XX=            -14.2394   YY=            -14.2394   ZZ=            -14.2394
   XY=              0.0000   XZ=             -0.0000   YZ=              0.0000

 Normal termination of Gaussian 16 at Mon Mar 26 15:05:31 2018.
