 Gaussian 16, Revision A.03,
 Gaussian 16:  ES64L-G16RevA.03 25-Dec-2016

 ----------------------------------------------------------------------
 #P ROCCSD(T)=(maxcyc=150, Full, SaveAmplitudes, ReadAmplitudes)/Gen 5d
  7f SCF=(maxcycles=300) Integral(NoXCTest) MaxDisk=500GB Pop=Regular P
 seudo=Read Guess=Read
 ----------------------------------------------------------------------

 ---
 TiO
 ---
 Symbolic Z-matrix:
 Charge =  0 Multiplicity = 3

                         Standard orientation:
 ---------------------------------------------------------------------
 Center     Atomic      Atomic             Coordinates (Angstroms)
 Number     Number       Type             X           Y           Z
 ---------------------------------------------------------------------
      1         22           0        0.000000    0.000000    0.320000
      2          8           0        0.000000    0.000000   -0.880000
 ---------------------------------------------------------------------

 SCF Done:  E(ROHF) =  -73.2805841745     A.U. after   20 cycles
 E2 =    -0.7636310903D+00 EUMP2 =    -0.74044215264786D+02
 CCSD(T)
 CCSD(T)= -0.74067005110D+02

 Unable to determine electronic state:  an orbital has unidentified symmetry.
 Alpha  occ. eigenvalues --   -2.97676  -2.00876  -1.80187  -1.80187  -1.11279
 Alpha  occ. eigenvalues --   -0.65373  -0.65373  -0.54343  -0.32908  -0.20108
 Alpha virt. eigenvalues --    0.01228   0.01228   0.01894   0.02569   0.03729
 Alpha virt. eigenvalues --    0.03729   0.03786   0.03829   0.03883   0.04806
 Alpha virt. eigenvalues --    0.04806   0.07265   0.10401   0.10903   0.11097

 Mulliken charges and spin densities:
               1          2
     1  Ti   0.729280   2.002342
     2  O   -0.729280  -0.002342
 Sum of Mulliken charges =  -0.00000   2.00000

 Dipole moment (field-independent basis, Debye):
    X=              0.0000    Y=              0.0000    Z=             -0.6373  Tot=              0.6373
 Quadrupole moment (field-independent basis, Debye-Ang):
   XX=            -22.3997   YY=            -22.3997   ZZ=            -26.2646
   XY=              0.0000   XZ=              0.0000   YZ=              0.0000

 \\#P ROCCSD(T)=(maxcyc=150, Full, SaveAmplitudes, ReadAmplitudes)/Gen
 -0=-74.0442153\CCSD=-74.0333713\CCSD(T)=-74.0670051\RMSD=7.514e-10\PG=
 Normal termination of Gaussian 16 at Mon Mar 12 15:35:16 2018.
