 Gaussian 16, Revision A.03,
 Gaussian 16:  ES64L-G16RevA.03 25-Dec-2016

 ----------------------------------------------------------------------
 #P ROCCSD(T)=(maxcyc=150, Full, SaveAmplitudes, ReadAmplitudes)/Gen 5d
  7f SCF=(maxcycles=300, VShift=400) Integral(NoXCTest) MaxDisk=500GB P
 op=Full Pseudo=Read Guess=Read IOp(5/15=2)
 ----------------------------------------------------------------------

 ---
 CrO
 ---
 Symbolic Z-matrix:
 Charge =  0 Multiplicity = 5

                         Standard orientation:
 ---------------------------------------------------------------------
 Center     Atomic      Atomic             Coordinates (Angstroms)
 Number     Number       Type             X           Y           Z
 ---------------------------------------------------------------------
      1         24           0        0.000000    0.000000    0.375000
      2          8           0        0.000000    0.000000   -1.125000
 ---------------------------------------------------------------------

 SCF Done:  E(ROHF) =  -101.705492376     A.U. after   43 cycles
 E2 =    -0.8807251879D+00 EUMP2 =    -0.10258621756383D+03
 CCSD(T)
 CCSD(T)= -0.10260880762D+03

 Unable to determine electronic state:  an orbital has unidentified symmetry.
 Alpha  occ. eigenvalues --   -3.73459  -2.49606  -2.45560  -2.42897  -1.21331
 Alpha  occ. eigenvalues --   -0.63582  -0.57676  -0.56182  -0.50570  -0.48164
 Alpha  occ. eigenvalues --   -0.39827  -0.29998
 Alpha virt. eigenvalues --    0.00753   0.01203   0.01916   0.03180   0.04631
 Alpha virt. eigenvalues --    0.04928   0.06333   0.07610   0.07620   0.08014
 Alpha virt. eigenvalues --    0.08437   0.08580   0.12837   0.14421   0.16736

 Mulliken charges and spin densities:
               1          2
     1  Cr   1.014763   3.831851
     2  O   -1.014763   0.168149
 Sum of Mulliken charges =  -0.00000   4.00000

 Dipole moment (field-independent basis, Debye):
    X=              0.0000    Y=              0.0000    Z=              4.4257  Tot=              4.4257
 Quadrupole moment (field-independent basis, Debye-Ang):
   XX=            -20.8373   YY=            -19.7395   ZZ=            -24.4836
   XY=              0.0000   XZ=              0.0000   YZ=              0.0000

 \\#P ROCCSD(T)=(maxcyc=150, Full, SaveAmplitudes, ReadAmplitudes)/Gen
 04443\CCSD=-102.5608438\CCSD(T)=-102.6088076\RMSD=8.793e-09\PG=C*V [C*
 Normal termination of Gaussian 16 at Thu Apr 19 07:57:38 2018.
