 Gaussian 16, Revision A.03,
 Gaussian 16:  ES64L-G16RevA.03 25-Dec-2016

 ----------------------------------------------------------------------
 #P ROCCSD(T)=(maxcyc=150, Full, SaveAmplitudes, ReadAmplitudes)/Gen 5d
  7f SCF=(maxcycles=300, VShift=400) Integral(NoXCTest) MaxDisk=500GB P
 op=Full Pseudo=Read Guess=Read IOp(5/15=2)
 ----------------------------------------------------------------------

 ---
 MnO
 ---
 Symbolic Z-matrix:
 Charge =  0 Multiplicity = 6

                         Standard orientation:
 ---------------------------------------------------------------------
 Center     Atomic      Atomic             Coordinates (Angstroms)
 Number     Number       Type             X           Y           Z
 ---------------------------------------------------------------------
      1         25           0        0.000000    0.000000    0.315152
      2          8           0        0.000000    0.000000   -0.984848
 ---------------------------------------------------------------------

 SCF Done:  E(ROHF) =  -119.188904979     A.U. after   46 cycles
 E2 =    -0.9358626966D+00 EUMP2 =    -0.12012476767555D+03
 CCSD(T)
 CCSD(T)= -0.12013119908D+03

 The electronic state is 6-SG.
 Alpha  occ. eigenvalues --   -4.14908  -2.73565  -2.73369  -2.73369  -1.27216
 Alpha  occ. eigenvalues --   -0.73595  -0.73595  -0.61928  -0.61928  -0.59908
 Alpha  occ. eigenvalues --   -0.40912  -0.40912  -0.30118
 Alpha virt. eigenvalues --    0.01884   0.02410   0.02410   0.03186   0.06426
 Alpha virt. eigenvalues --    0.07585   0.07585   0.08763   0.08763   0.09370
 Alpha virt. eigenvalues --    0.09370   0.10242   0.12103   0.16489   0.24624

 Mulliken charges and spin densities:
               1          2
     1  Mn   0.807049   4.762395
     2  O   -0.807049   0.237605
 Sum of Mulliken charges =  -0.00000   5.00000

 Dipole moment (field-independent basis, Debye):
    X=              0.0000    Y=              0.0000    Z=              2.8129  Tot=              2.8129
 Quadrupole moment (field-independent basis, Debye-Ang):
   XX=            -19.6977   YY=            -19.6977   ZZ=            -22.7781
   XY=              0.0000   XZ=              0.0000   YZ=              0.0000

 \\#P ROCCSD(T)=(maxcyc=150, Full, SaveAmplitudes, ReadAmplitudes)/Gen
 DQ=-120.1064331\CCSD=-120.0914841\CCSD(T)=-120.1311991\RMSD=9.934e-09\
 Normal termination of Gaussian 16 at Sun Mar 18 19:00:14 2018.
