 Gaussian 16, Revision A.03,
 Gaussian 16:  ES64L-G16RevA.03 25-Dec-2016

 ----------------------------------------------------------------------
 #P ROCCSD(T)=(maxcyc=150, Full, SaveAmplitudes, ReadAmplitudes)/Gen 5d
  7f SCF=(maxcycles=300) Integral(NoXCTest) MaxDisk=500GB Pop=Regular P
 seudo=Read Guess=Read
 ----------------------------------------------------------------------

 ---
 TiO
 ---
 Symbolic Z-matrix:
 Charge =  0 Multiplicity = 3

                         Standard orientation:
 ---------------------------------------------------------------------
 Center     Atomic      Atomic             Coordinates (Angstroms)
 Number     Number       Type             X           Y           Z
 ---------------------------------------------------------------------
      1         22           0        0.000000    0.000000    0.320000
      2          8           0        0.000000    0.000000   -0.880000
 ---------------------------------------------------------------------

 SCF Done:  E(ROHF) =  -72.9983292426     A.U. after   28 cycles
 E2 =    -0.7560625706D+00 EUMP2 =    -0.73754391813132D+02
 CCSD(T)
 CCSD(T)= -0.73777954324D+02

 Unable to determine electronic state:  an orbital has unidentified symmetry.
 Alpha  occ. eigenvalues --   -2.94531  -2.01800  -1.80970  -1.80970  -1.11399
 Alpha  occ. eigenvalues --   -0.65838  -0.65838  -0.54622  -0.32716  -0.19921
 Alpha virt. eigenvalues --    0.01206   0.01206   0.01875   0.02595   0.03721
 Alpha virt. eigenvalues --    0.03721   0.03783   0.03826   0.03882   0.04792
 Alpha virt. eigenvalues --    0.04792   0.07238   0.10418   0.10856   0.11078

 Mulliken charges and spin densities:
               1          2
     1  Ti   0.846984   2.031742
     2  O   -0.846984  -0.031742
 Sum of Mulliken charges =  -0.00000   2.00000

 Dipole moment (field-independent basis, Debye):
    X=              0.0000    Y=              0.0000    Z=             -0.7448  Tot=              0.7448
 Quadrupole moment (field-independent basis, Debye-Ang):
   XX=            -22.6203   YY=            -22.6203   ZZ=            -26.5234
   XY=              0.0000   XZ=              0.0000   YZ=              0.0000

 \\#P ROCCSD(T)=(maxcyc=150, Full, SaveAmplitudes, ReadAmplitudes)/Gen
 -0=-73.7543918\CCSD=-73.7450378\CCSD(T)=-73.7779543\RMSD=5.818e-10\PG=
 Normal termination of Gaussian 16 at Fri Mar  9 16:30:57 2018.
