 Gaussian 16, Revision A.03,
 Gaussian 16:  ES64L-G16RevA.03 25-Dec-2016

 ----------------------------------------------------------------------
 #P ROCCSD(T)=(MaxCyc=150, Full)/Gen SCF=(maxcycle=400) Pseudo=Read Int
 egral(NoXCTest) Pop=Regular MaxDisk=500GB Guess=Read IOp(5/15=2)
 ----------------------------------------------------------------------

 ---
 ZnO
 ---
 Symbolic Z-matrix:
 Charge =  0 Multiplicity = 1

                         Standard orientation:
 ---------------------------------------------------------------------
 Center     Atomic      Atomic             Coordinates (Angstroms)
 Number     Number       Type             X           Y           Z
 ---------------------------------------------------------------------
      1         30           0        0.000000    0.000000    0.336842
      2          8           0        0.000000    0.000000   -1.263158
 ---------------------------------------------------------------------

 SCF Done:  E(ROHF) =  -241.661531140     A.U. after    1 cycles
 E2 =    -0.1350727454D+01 EUMP2 =    -0.24301225859398D+03
 CCSD(T)
 CCSD(T)= -0.24295527850D+03

 The electronic state is 1-SG.
 Alpha  occ. eigenvalues --   -5.60366  -3.89952  -3.89587  -3.89587  -1.16146
 Alpha  occ. eigenvalues --   -0.82653  -0.82653  -0.81720  -0.81720  -0.79387
 Alpha  occ. eigenvalues --   -0.39367  -0.39367  -0.38629
 Alpha virt. eigenvalues --   -0.04876   0.02628   0.02699   0.02699   0.04703
 Alpha virt. eigenvalues --    0.09054   0.09054   0.13381   0.17590   0.22101
 Alpha virt. eigenvalues --    0.23833   0.23833   0.24703   0.24703   0.29828

 Mulliken charges and spin densities:
               1          2
     1  Zn   1.133762   0.000000
     2  O   -1.133762   0.000000
 Sum of Mulliken charges =  -0.00000   0.00000

 Dipole moment (field-independent basis, Debye):
    X=              0.0000    Y=              0.0000    Z=              7.2858  Tot=              7.2858
 Quadrupole moment (field-independent basis, Debye-Ang):
   XX=            -17.8907   YY=            -17.8907   ZZ=            -21.1318
   XY=              0.0000   XZ=              0.0000   YZ=              0.0000

 P ROCCSD(T)=(MaxCyc=150, Full)/Gen SCF=(maxcycle=400) Pseudo=Read Inte
 -0=-243.0122586\MP4SDQ=-242.9520975\CCSD=-242.9060641\CCSD(T)=-242.955
 Normal termination of Gaussian 16 at Tue Mar 27 11:36:29 2018.
