 Gaussian 16, Revision A.03,
 Gaussian 16:  ES64L-G16RevA.03 25-Dec-2016

 ----------------------------------------------------------------------
 #P ROCCSD(T)=(MaxCyc=150, Full)/Gen SCF=(maxcycle=400) Pseudo=Read Int
 egral(NoXCTest) Pop=Regular MaxDisk=500GB Guess=Read IOp(5/15=2)
 ----------------------------------------------------------------------

 ---
 ZnO
 ---
 Symbolic Z-matrix:
 Charge =  0 Multiplicity = 1

                         Standard orientation:
 ---------------------------------------------------------------------
 Center     Atomic      Atomic             Coordinates (Angstroms)
 Number     Number       Type             X           Y           Z
 ---------------------------------------------------------------------
      1         30           0        0.000000    0.000000    0.336842
      2          8           0        0.000000    0.000000   -1.263158
 ---------------------------------------------------------------------

 SCF Done:  E(ROHF) =  -241.664721724     A.U. after   12 cycles
 E2 =    -0.1418831265D+01 EUMP2 =    -0.24308355298844D+03
 CCSD(T)
 CCSD(T)= -0.24302405689D+03

 The electronic state is 1-SG.
 Alpha  occ. eigenvalues --   -5.60327  -3.89921  -3.89563  -3.89563  -1.16101
 Alpha  occ. eigenvalues --   -0.82645  -0.82645  -0.81717  -0.81717  -0.79373
 Alpha  occ. eigenvalues --   -0.39373  -0.39373  -0.38612
 Alpha virt. eigenvalues --   -0.04864   0.02405   0.02443   0.02443   0.04219
 Alpha virt. eigenvalues --    0.07878   0.07878   0.11989   0.16422   0.17741
 Alpha virt. eigenvalues --    0.17807   0.17807   0.20653   0.20653   0.23052

 Mulliken charges and spin densities:
               1          2
     1  Zn   1.020248   0.000000
     2  O   -1.020248   0.000000
 Sum of Mulliken charges =  -0.00000   0.00000

 Dipole moment (field-independent basis, Debye):
    X=              0.0000    Y=              0.0000    Z=              7.2734  Tot=              7.2734
 Quadrupole moment (field-independent basis, Debye-Ang):
   XX=            -17.8776   YY=            -17.8776   ZZ=            -21.1295
   XY=              0.0000   XZ=              0.0000   YZ=              0.0000

 P ROCCSD(T)=(MaxCyc=150, Full)/Gen SCF=(maxcycle=400) Pseudo=Read Inte
 -0=-243.083553\MP4SDQ=-243.0173165\CCSD=-242.9722741\CCSD(T)=-243.0240
 Normal termination of Gaussian 16 at Tue Mar 27 13:52:34 2018.
