 Gaussian 16, Revision A.03,
 Gaussian 16:  ES64L-G16RevA.03 25-Dec-2016

 ----------------------------------------------------------------------
 #P ROCCSD(T)=(maxcyc=150, Full)/Gen 5d 7f SCF=(maxcycles=300) Integral
 (NoXCTest) MaxDisk=500GB Pop=Regular Pseudo=Read
 ----------------------------------------------------------------------

 ---
 ScH
 ---
 Symbolic Z-matrix:
 Charge =  0 Multiplicity = 1

                         Standard orientation:
 ---------------------------------------------------------------------
 Center     Atomic      Atomic             Coordinates (Angstroms)
 Number     Number       Type             X           Y           Z
 ---------------------------------------------------------------------
      1         21           0        0.000000    0.000000    0.077273
      2          1           0        0.000000    0.000000   -1.622727
 ---------------------------------------------------------------------

 SCF Done:  E(ROHF) =  -46.6604921511     A.U. after   12 cycles
 E2 =    -0.4085863859D+00 EUMP2 =    -0.47069078537079D+02
 CCSD(T)
 CCSD(T)= -0.47113648374D+02

 The electronic state is 1-SG.
 Alpha  occ. eigenvalues --   -2.67852  -1.65787  -1.65620  -1.65620  -0.41731
 Alpha  occ. eigenvalues --   -0.22903
 Alpha virt. eigenvalues --    0.01199   0.01199   0.01606   0.02184   0.03541
 Alpha virt. eigenvalues --    0.03859   0.03859   0.03922   0.03922   0.04603
 Alpha virt. eigenvalues --    0.04603   0.04850   0.08685   0.08685   0.09378

 Mulliken charges and spin densities:
               1          2
     1  Sc   0.372438   0.000000
     2  H   -0.372438   0.000000
 Sum of Mulliken charges =  -0.00000   0.00000

 Dipole moment (field-independent basis, Debye):
    X=              0.0000    Y=              0.0000    Z=              1.2182  Tot=              1.2182
 Quadrupole moment (field-independent basis, Debye-Ang):
   XX=            -23.1310   YY=            -23.1310   ZZ=            -26.0320
   XY=              0.0000   XZ=              0.0000   YZ=              0.0000

 P ROCCSD(T)=(maxcyc=150, Full)/Gen 5d 7f SCF=(maxcycles=300) Integral(
 Q=-47.0957639\CCSD=-47.0954151\CCSD(T)=-47.1136484\RMSD=5.895e-09\PG=C
 Normal termination of Gaussian 16 at Tue Feb 13 02:44:56 2018.
