 Gaussian 16, Revision A.03,
 Gaussian 16:  ES64L-G16RevA.03 25-Dec-2016

 ----------------------------------------------------------------------
 #P ROCCSD(T)=(MaxCyc=150, Full)/Gen SCF=(maxcycle=400) Pseudo=Read Int
 egral(NoXCTest) Pop=Regular MaxDisk=500GB
 ----------------------------------------------------------------------

 ---
 FeO
 ---
 Symbolic Z-matrix:
 Charge =  0 Multiplicity = 5

                         Standard orientation:
 ---------------------------------------------------------------------
 Center     Atomic      Atomic             Coordinates (Angstroms)
 Number     Number       Type             X           Y           Z
 ---------------------------------------------------------------------
      1         26           0        0.000000    0.000000    0.282353
      2          8           0        0.000000    0.000000   -0.917647
 ---------------------------------------------------------------------

 SCF Done:  E(ROHF) =  -138.569546385     A.U. after   31 cycles
 E2 =    -0.1097005248D+01 EUMP2 =    -0.13966655163295D+03
 CCSD(T)
 CCSD(T)= -0.13965038637D+03

 Unable to determine electronic state:  partially filled degenerate orbitals.
 Alpha  occ. eigenvalues --   -4.46662  -3.00236  -2.90870  -2.90870  -1.32214
 Alpha  occ. eigenvalues --   -0.80455  -0.80455  -0.66769  -0.61322  -0.57003
 Alpha  occ. eigenvalues --   -0.41949  -0.41949  -0.29229
 Alpha virt. eigenvalues --    0.02220   0.02439   0.02439   0.02831   0.05948
 Alpha virt. eigenvalues --    0.06547   0.06547   0.06700   0.06710   0.08306
 Alpha virt. eigenvalues --    0.08306   0.09018   0.11066   0.16299   0.19976

 Mulliken charges and spin densities:
               1          2
     1  Fe   0.825803   3.680334
     2  O   -0.825803   0.319666
 Sum of Mulliken charges =  -0.00000   4.00000

 Dipole moment (field-independent basis, Debye):
    X=              0.0000    Y=              0.0000    Z=              1.5604  Tot=              1.5604
 Quadrupole moment (field-independent basis, Debye-Ang):
   XX=            -19.4240   YY=            -19.4240   ZZ=            -21.1950
   XY=              0.0000   XZ=              0.0000   YZ=              0.0000

 \\#P ROCCSD(T)=(MaxCyc=150, Full)/Gen SCF=(maxcycle=400) Pseudo=Read I
 1495\CCSD=-139.6055202\CCSD(T)=-139.6503864\RMSD=1.061e-09\PG=C*V [C*(
 Normal termination of Gaussian 16 at Sun Mar 25 09:11:20 2018.
