 Gaussian 16, Revision A.03,
 Gaussian 16:  ES64L-G16RevA.03 25-Dec-2016

 ----------------------------------------------------------------------
 #P ROCCSD(T)=(MaxCyc=150, Full)/Gen SCF=(maxcycle=400) Pseudo=Read Int
 egral(NoXCTest) Pop=Regular MaxDisk=500GB
 ----------------------------------------------------------------------

 ---
 FeO
 ---
 Symbolic Z-matrix:
 Charge =  0 Multiplicity = 5

                         Standard orientation:
 ---------------------------------------------------------------------
 Center     Atomic      Atomic             Coordinates (Angstroms)
 Number     Number       Type             X           Y           Z
 ---------------------------------------------------------------------
      1         26           0        0.000000    0.000000    0.282353
      2          8           0        0.000000    0.000000   -0.917647
 ---------------------------------------------------------------------

 SCF Done:  E(ROHF) =  -138.564791713     A.U. after   25 cycles
 E2 =    -0.1048234091D+01 EUMP2 =    -0.13961302580407D+03
 CCSD(T)
 CCSD(T)= -0.13959910865D+03

 Unable to determine electronic state:  partially filled degenerate orbitals.
 Alpha  occ. eigenvalues --   -4.46701  -3.00300  -2.90902  -2.90902  -1.32291
 Alpha  occ. eigenvalues --   -0.80460  -0.80460  -0.66791  -0.61339  -0.57016
 Alpha  occ. eigenvalues --   -0.41957  -0.41957  -0.29243
 Alpha virt. eigenvalues --    0.02343   0.02680   0.02680   0.03081   0.07468
 Alpha virt. eigenvalues --    0.08604   0.08604   0.09964   0.09994   0.10194
 Alpha virt. eigenvalues --    0.10194   0.11544   0.12078   0.18077   0.26675

 Mulliken charges and spin densities:
               1          2
     1  Fe   0.559993   3.693578
     2  O   -0.559993   0.306422
 Sum of Mulliken charges =  -0.00000   4.00000

 Dipole moment (field-independent basis, Debye):
    X=              0.0000    Y=              0.0000    Z=              1.5679  Tot=              1.5679
 Quadrupole moment (field-independent basis, Debye-Ang):
   XX=            -19.4254   YY=            -19.4254   ZZ=            -21.2162
   XY=              0.0000   XZ=              0.0000   YZ=              0.0000

 \\#P ROCCSD(T)=(MaxCyc=150, Full)/Gen SCF=(maxcycle=400) Pseudo=Read I
 27393\CCSD=-139.5563565\CCSD(T)=-139.5991087\RMSD=4.938e-09\PG=C*V [C*
 Normal termination of Gaussian 16 at Sun Mar 25 07:17:05 2018.
