 Gaussian 16, Revision A.03,
 Gaussian 16:  ES64L-G16RevA.03 25-Dec-2016

 ----------------------------------------------------------------------
 #P ROCCSD(T)=(maxcyc=150, Full, SaveAmplitudes, ReadAmplitudes)/Gen 5d
  7f SCF=(maxcycles=300) Integral(NoXCTest) MaxDisk=500GB Pop=Regular P
 seudo=Read Guess=Read
 ----------------------------------------------------------------------

 ---
 MnO
 ---
 Symbolic Z-matrix:
 Charge =  0 Multiplicity = 6

                         Standard orientation:
 ---------------------------------------------------------------------
 Center     Atomic      Atomic             Coordinates (Angstroms)
 Number     Number       Type             X           Y           Z
 ---------------------------------------------------------------------
      1         25           0        0.000000    0.000000    0.315152
      2          8           0        0.000000    0.000000   -0.984848
 ---------------------------------------------------------------------

 SCF Done:  E(ROHF) =  -119.220324372     A.U. after   22 cycles
 E2 =    -0.9939977219D+00 EUMP2 =    -0.12021432209360D+03
 CCSD(T)
 CCSD(T)= -0.12022004915D+03

 The electronic state is 6-SG.
 Alpha  occ. eigenvalues --   -4.07692  -2.73462  -2.73462  -2.73067  -1.25867
 Alpha  occ. eigenvalues --   -0.73191  -0.73191  -0.61378  -0.61378  -0.59979
 Alpha  occ. eigenvalues --   -0.40819  -0.40819  -0.30279
 Alpha virt. eigenvalues --    0.01803   0.02214   0.02214   0.02922   0.05332
 Alpha virt. eigenvalues --    0.05972   0.05972   0.05974   0.05974   0.07522
 Alpha virt. eigenvalues --    0.07522   0.07684   0.11219   0.14664   0.18016

 Mulliken charges and spin densities:
               1          2
     1  Mn   1.062238   4.744757
     2  O   -1.062238   0.255243
 Sum of Mulliken charges =  -0.00000   5.00000

 Dipole moment (field-independent basis, Debye):
    X=              0.0000    Y=              0.0000    Z=              2.7244  Tot=              2.7244
 Quadrupole moment (field-independent basis, Debye-Ang):
   XX=            -19.7488   YY=            -19.7488   ZZ=            -22.8515
   XY=              0.0000   XZ=              0.0000   YZ=              0.0000

 \\#P ROCCSD(T)=(maxcyc=150, Full, SaveAmplitudes, ReadAmplitudes)/Gen
 9.2203244\PMP2-0=-120.2143221\CCSD=-120.1777096\CCSD(T)=-120.2200492\R
 Normal termination of Gaussian 16 at Tue Mar 13 04:44:54 2018.
