 Gaussian 16, Revision A.03,
 Gaussian 16:  ES64L-G16RevA.03 25-Dec-2016

 ----------------------------------------------------------------------
 #P ROCCSD(T)=(maxcyc=150, Full, SaveAmplitudes, ReadAmplitudes)/Gen 5d
  7f SCF=(maxcycles=300) Integral(NoXCTest) MaxDisk=500GB Pop=Regular P
 seudo=Read Guess=Read IOp(5/15=2)
 ----------------------------------------------------------------------

 ---
 ScO
 ---
 Symbolic Z-matrix:
 Charge =  0 Multiplicity = 2

                         Standard orientation:
 ---------------------------------------------------------------------
 Center     Atomic      Atomic             Coordinates (Angstroms)
 Number     Number       Type             X           Y           Z
 ---------------------------------------------------------------------
      1         21           0        0.000000    0.000000    0.496552
      2          8           0        0.000000    0.000000   -1.303448
 ---------------------------------------------------------------------

 SCF Done:  E(ROHF) =  -61.9495067632     A.U. after   17 cycles
 E2 =    -0.6880239832D+00 EUMP2 =    -0.62637530746444D+02
 CCSD(T)
 CCSD(T)= -0.62669012243D+02

 The electronic state is 2-SG.
 Alpha  occ. eigenvalues --   -2.69298  -1.67052  -1.65889  -1.65889  -1.12020
 Alpha  occ. eigenvalues --   -0.41559  -0.38613  -0.38613  -0.26422
 Alpha virt. eigenvalues --   -0.00431  -0.00431   0.01184   0.02125   0.03286
 Alpha virt. eigenvalues --    0.03286   0.03488   0.03488   0.04252   0.04252
 Alpha virt. eigenvalues --    0.04394   0.04987   0.07070   0.07070   0.10237

 Mulliken charges and spin densities:
               1          2
     1  Sc   1.231790   0.976124
     2  O   -1.231790   0.023876
 Sum of Mulliken charges =  -0.00000   1.00000

 Dipole moment (field-independent basis, Debye):
    X=              0.0000    Y=              0.0000    Z=              5.7726  Tot=              5.7726
 Quadrupole moment (field-independent basis, Debye-Ang):
   XX=            -21.8851   YY=            -21.8851   ZZ=            -33.2903
   XY=              0.0000   XZ=              0.0000   YZ=              0.0000

 \\#P ROCCSD(T)=(maxcyc=150, Full, SaveAmplitudes, ReadAmplitudes)/Gen
 25\CCSD=-62.625025\CCSD(T)=-62.6690122\RMSD=2.283e-09\PG=C*V [C*(O1Sc1
 Normal termination of Gaussian 16 at Wed Mar  7 11:47:27 2018.
