 Gaussian 16, Revision A.03,
 Gaussian 16:  ES64L-G16RevA.03 25-Dec-2016

 ----------------------------------------------------------------------
 #P ROCCSD(T)=(maxcyc=150, Window=(7,0), SaveAmplitudes, ReadAmplitudes
 )/Gen 5d 7f SCF=(maxcycles=300) Integral(NoXCTest, DKHSO) MaxDisk=500G
 B Pop=Regular Guess=Read IOp(5/15=2)
 ----------------------------------------------------------------------

 ---
 TiO
 ---
 Symbolic Z-matrix:
 Charge =  0 Multiplicity = 3

                         Standard orientation:
 ---------------------------------------------------------------------
 Center     Atomic      Atomic             Coordinates (Angstroms)
 Number     Number       Type             X           Y           Z
 ---------------------------------------------------------------------
      1         22           0        0.000000    0.000000    0.346667
      2          8           0        0.000000    0.000000   -0.953333
 ---------------------------------------------------------------------

 SCF Done:  E(ROHF) =  -927.575258709     A.U. after   21 cycles
 E2 =    -0.7125259336D+00 EUMP2 =    -0.92828778464276D+03
 CCSD(T)
 CCSD(T)= -0.92830753434D+03

 Unable to determine electronic state:  an orbital has unidentified symmetry.
 Alpha  occ. eigenvalues -- -184.33768 -21.59272 -20.56942 -17.75998 -17.75998
 Alpha  occ. eigenvalues --  -17.75925  -2.91903  -1.94672  -1.80958  -1.80958
 Alpha  occ. eigenvalues --   -1.13280  -0.59104  -0.59104  -0.52440  -0.35339
 Alpha  occ. eigenvalues --   -0.21703
 Alpha virt. eigenvalues --    0.01198   0.01198   0.02320   0.02547   0.04822
 Alpha virt. eigenvalues --    0.04822   0.05015   0.05166   0.05330   0.05799
 Alpha virt. eigenvalues --    0.05799   0.08533   0.11826   0.13765   0.14646

 Mulliken charges and spin densities:
               1          2
     1  Ti   0.711744   2.044050
     2  O   -0.711744  -0.044050
 Sum of Mulliken charges =  -0.00000   2.00000

 Dipole moment (field-independent basis, Debye):
    X=              0.0000    Y=              0.0000    Z=              0.6548  Tot=              0.6548
 Quadrupole moment (field-independent basis, Debye-Ang):
   XX=            -22.4396   YY=            -22.4396   ZZ=            -27.4994
   XY=              0.0000   XZ=              0.0000   YZ=             -0.0000

 1\1\GINC-C505-102\SP\ROCCSD(T)-RW\Gen\O1Ti1(3)\AANNABE\14-Mar-2018\0\\
 #P ROCCSD(T)=(maxcyc=150, Window=(7,0), SaveAmplitudes, ReadAmplitudes
 )/Gen 5d 7f SCF=(maxcycles=300) Integral(NoXCTest, DKHSO) MaxDisk=500G
 B Pop=Regular Guess=Read IOp(5/15=2)\\TiO\\0,3\Ti,0,0.,0.,0.\O,0,0.,0.
 ,1.3\\Version=ES64L-G16RevA.03\HF=-927.5752587\MP2=-928.2877846\MP3=-9
 28.2603622\PUHF=-927.5752587\PMP2-0=-928.2877846\MP4SDQ=-928.2843843\C
 CSD=-928.2745528\CCSD(T)=-928.3075343\RMSD=6.085e-09\PG=C*V [C*(O1Ti1)
 ]\\@

 Normal termination of Gaussian 16 at Wed Mar 14 14:16:06 2018.
