 Gaussian 16, Revision A.03,
 Gaussian 16:  ES64L-G16RevA.03 25-Dec-2016

 ----------------------------------------------------------------------
 #P ROCCSD(T)=(maxcyc=100, Full)/Gen SCF=(maxcycle=400, symm) Pseudo=Re
 ad Integral(NoXCTest) Pop=Regular MaxDisk=500GB Guess=Permute IOp(5/15
 =2)
 ----------------------------------------------------------------------

 ---
 FeH
 ---
 Symbolic Z-matrix:
 Charge =  0 Multiplicity = 4

                         Standard orientation:
 ---------------------------------------------------------------------
 Center     Atomic      Atomic             Coordinates (Angstroms)
 Number     Number       Type             X           Y           Z
 ---------------------------------------------------------------------
      1         26           0        0.000000    0.000000    0.040741
      2          1           0        0.000000    0.000000   -1.059259
 ---------------------------------------------------------------------

 SCF Done:  E(ROHF) =  -123.408158441     A.U. after   29 cycles
 E2 =    -0.8198092825D+00 EUMP2 =    -0.12422796772313D+03
 CCSD(T)
 CCSD(T)= -0.12422066251D+03

 Unable to determine electronic state:  partially filled degenerate orbitals.
 Alpha  occ. eigenvalues --   -4.44916  -2.88993  -2.85553  -2.85553  -0.58998
 Alpha  occ. eigenvalues --   -0.57217  -0.57217  -0.54071  -0.49193  -0.30053
 Alpha virt. eigenvalues --    0.00599   0.02181   0.02181   0.02254   0.04086
 Alpha virt. eigenvalues --    0.05985   0.06227   0.06227   0.06291   0.06299
 Alpha virt. eigenvalues --    0.07005   0.07005   0.07999   0.12845   0.17524

 Mulliken charges and spin densities:
               1          2
     1  Fe   0.356734   2.985280
     2  H   -0.356734   0.014720
 Sum of Mulliken charges =  -0.00000   3.00000

 Dipole moment (field-independent basis, Debye):
    X=              0.0000    Y=              0.0000    Z=              2.7149  Tot=              2.7149
 Quadrupole moment (field-independent basis, Debye-Ang):
   XX=            -16.9941   YY=            -16.9941   ZZ=            -15.9114
   XY=              0.0000   XZ=              0.0000   YZ=              0.0000

 \\#P ROCCSD(T)=(maxcyc=100, Full)/Gen SCF=(maxcycle=400, symm) Pseudo=
 1903363\CCSD(T)=-124.2206625\RMSD=9.938e-09\PG=C*V [C*(H1Fe1)]\\@
 Normal termination of Gaussian 16 at Mon Feb 12 22:35:04 2018.
