 Gaussian 16, Revision A.03,
 Gaussian 16:  ES64L-G16RevA.03 25-Dec-2016

 ----------------------------------------------------------------------
 #P ROCCSD(T)=(maxcyc=100, Full)/Gen SCF=(maxcycle=400, symm) Pseudo=Re
 ad Integral(NoXCTest) Pop=Regular MaxDisk=500GB Guess=Permute IOp(5/15
 =2)
 ----------------------------------------------------------------------

 ---
 FeH
 ---
 Symbolic Z-matrix:
 Charge =  0 Multiplicity = 4

                         Standard orientation:
 ---------------------------------------------------------------------
 Center     Atomic      Atomic             Coordinates (Angstroms)
 Number     Number       Type             X           Y           Z
 ---------------------------------------------------------------------
      1         26           0        0.000000    0.000000    0.040741
      2          1           0        0.000000    0.000000   -1.059259
 ---------------------------------------------------------------------

 SCF Done:  E(ROHF) =  -123.402924020     A.U. after   24 cycles
 E2 =    -0.8056706238D+00 EUMP2 =    -0.12420859464421D+03
 CCSD(T)
 CCSD(T)= -0.12420320646D+03

 Unable to determine electronic state:  partially filled degenerate orbitals.
 Alpha  occ. eigenvalues --   -4.44816  -2.89036  -2.85596  -2.85596  -0.58996
 Alpha  occ. eigenvalues --   -0.57217  -0.57217  -0.54070  -0.49188  -0.30050
 Alpha virt. eigenvalues --    0.00670   0.02242   0.02242   0.02513   0.04792
 Alpha virt. eigenvalues --    0.06286   0.06781   0.06781   0.06866   0.06877
 Alpha virt. eigenvalues --    0.07322   0.07322   0.09085   0.17162   0.18485

 Mulliken charges and spin densities:
               1          2
     1  Fe   0.451083   2.989209
     2  H   -0.451083   0.010791
 Sum of Mulliken charges =  -0.00000   3.00000

 Dipole moment (field-independent basis, Debye):
    X=              0.0000    Y=              0.0000    Z=              2.7158  Tot=              2.7158
 Quadrupole moment (field-independent basis, Debye-Ang):
   XX=            -16.9971   YY=            -16.9971   ZZ=            -15.9131
   XY=              0.0000   XZ=              0.0000   YZ=              0.0000

 \\#P ROCCSD(T)=(maxcyc=100, Full)/Gen SCF=(maxcycle=400, symm) Pseudo=
 33241\CCSD(T)=-124.2032065\RMSD=9.495e-09\PG=C*V [C*(H1Fe1)]\\@
 Normal termination of Gaussian 16 at Mon Feb 12 20:56:52 2018.
