 Gaussian 16, Revision A.03,
 Gaussian 16:  ES64L-G16RevA.03 25-Dec-2016

 ----------------------------------------------------------------------
 #P ROCCSD(T)=(maxcyc=100, Full)/Gen SCF=(maxcycle=400, symm) Pseudo=Re
 ad Integral(NoXCTest) Pop=Regular MaxDisk=500GB Guess=Permute IOp(5/15
 =2)
 ----------------------------------------------------------------------

 ---
 FeH
 ---
 Symbolic Z-matrix:
 Charge =  0 Multiplicity = 4

                         Standard orientation:
 ---------------------------------------------------------------------
 Center     Atomic      Atomic             Coordinates (Angstroms)
 Number     Number       Type             X           Y           Z
 ---------------------------------------------------------------------
      1         26           0        0.000000    0.000000    0.040741
      2          1           0        0.000000    0.000000   -1.059259
 ---------------------------------------------------------------------

 SCF Done:  E(ROHF) =  -123.406604244     A.U. after   29 cycles
 E2 =    -0.7704145150D+00 EUMP2 =    -0.12417701875891D+03
 CCSD(T)
 CCSD(T)= -0.12417338184D+03

 Unable to determine electronic state:  an orbital has unidentified symmetry.
 Alpha  occ. eigenvalues --   -4.44966  -2.89013  -2.85570  -2.85570  -0.58987
 Alpha  occ. eigenvalues --   -0.57215  -0.57215  -0.54068  -0.49184  -0.30055
 Alpha virt. eigenvalues --    0.00707   0.02438   0.02438   0.02764   0.04897
 Alpha virt. eigenvalues --    0.08119   0.08119   0.09527   0.10193   0.10193
 Alpha virt. eigenvalues --    0.10332   0.10365   0.10541   0.16303   0.25467

 Mulliken charges and spin densities:
               1          2
     1  Fe   0.239153   2.986339
     2  H   -0.239153   0.013661
 Sum of Mulliken charges =  -0.00000   3.00000

 Dipole moment (field-independent basis, Debye):
    X=              0.0000    Y=              0.0000    Z=              2.7151  Tot=              2.7151
 Quadrupole moment (field-independent basis, Debye-Ang):
   XX=            -17.0026   YY=            -17.0026   ZZ=            -15.9080
   XY=              0.0000   XZ=              0.0000   YZ=              0.0000

 \\#P ROCCSD(T)=(maxcyc=100, Full)/Gen SCF=(maxcycle=400, symm) Pseudo=
 1448016\CCSD(T)=-124.1733818\RMSD=4.553e-09\PG=C*V [C*(H1Fe1)]\\@
 Normal termination of Gaussian 16 at Mon Feb 12 20:22:22 2018.
