 Gaussian 16, Revision A.03,
 Gaussian 16:  ES64L-G16RevA.03 25-Dec-2016

 ----------------------------------------------------------------------
 #P ROCCSD(T)=(maxcyc=150, Full)/Gen 5d 7f SCF=(maxcycles=300) Integral
 (NoXCTest) MaxDisk=500GB Pop=Regular Pseudo=Read IOp(5/15=2) Guess=Rea
 d
 ----------------------------------------------------------------------

 ---
 ScH
 ---
 Symbolic Z-matrix:
 Charge =  0 Multiplicity = 1

                         Standard orientation:
 ---------------------------------------------------------------------
 Center     Atomic      Atomic             Coordinates (Angstroms)
 Number     Number       Type             X           Y           Z
 ---------------------------------------------------------------------
      1         21           0        0.000000    0.000000    0.063636
      2          1           0        0.000000    0.000000   -1.336364
 ---------------------------------------------------------------------

 SCF Done:  E(ROHF) =  -46.5594097521     A.U. after    9 cycles
 E2 =    -0.4363814873D+00 EUMP2 =    -0.46995791239457D+02
 CCSD(T)
 CCSD(T)= -0.47032803441D+02

 The electronic state is 1-SG.
 Alpha  occ. eigenvalues --   -2.64904  -1.63723  -1.61930  -1.61930  -0.45245
 Alpha  occ. eigenvalues --   -0.21940
 Alpha virt. eigenvalues --    0.01269   0.01269   0.01448   0.01672   0.02621
 Alpha virt. eigenvalues --    0.02621   0.02628   0.02628   0.02645   0.04109
 Alpha virt. eigenvalues --    0.04312   0.04312   0.06983   0.07400   0.07400

 Mulliken charges and spin densities:
               1          2
     1  Sc   0.371949   0.000000
     2  H   -0.371949   0.000000
 Sum of Mulliken charges =  -0.00000   0.00000

 Dipole moment (field-independent basis, Debye):
    X=              0.0000    Y=              0.0000    Z=              0.6998  Tot=              0.6998
 Quadrupole moment (field-independent basis, Debye-Ang):
   XX=            -23.5055   YY=            -23.5055   ZZ=            -23.8149
   XY=              0.0000   XZ=              0.0000   YZ=              0.0000

 P ROCCSD(T)=(maxcyc=150, Full)/Gen 5d 7f SCF=(maxcycles=300) Integral(
 MP2-0=-46.9957912\MP4SDQ=-47.0141947\CCSD=-47.0137552\CCSD(T)=-47.0328
 Normal termination of Gaussian 16 at Tue Feb 13 23:34:06 2018.
