 Gaussian 16, Revision A.03,
 Gaussian 16:  ES64L-G16RevA.03 25-Dec-2016

 ----------------------------------------------------------------------
 #P ROCCSD(T)=(maxcyc=150, Full, SaveAmplitudes, ReadAmplitudes)/Gen 5d
  7f SCF=(maxcycles=300) Integral(NoXCTest) MaxDisk=500GB Pop=Regular P
 seudo=Read Guess=Read
 ----------------------------------------------------------------------

 ---
 MnO
 ---
 Symbolic Z-matrix:
 Charge =  0 Multiplicity = 6

                         Standard orientation:
 ---------------------------------------------------------------------
 Center     Atomic      Atomic             Coordinates (Angstroms)
 Number     Number       Type             X           Y           Z
 ---------------------------------------------------------------------
      1         25           0        0.000000    0.000000    0.363636
      2          8           0        0.000000    0.000000   -1.136364
 ---------------------------------------------------------------------

 SCF Done:  E(ROHF) =  -119.107377154     A.U. after   28 cycles
 E2 =    -0.9665469040D+00 EUMP2 =    -0.12007392405765D+03
 CCSD(T)
 CCSD(T)= -0.12008587024D+03

 The electronic state is 6-SG.
 Alpha  occ. eigenvalues --   -4.23311  -2.78839  -2.78839  -2.76406  -1.18962
 Alpha  occ. eigenvalues --   -0.68079  -0.68079  -0.63814  -0.63814  -0.53347
 Alpha  occ. eigenvalues --   -0.38978  -0.38978  -0.33366
 Alpha virt. eigenvalues --   -0.00506   0.01755   0.01755   0.03100   0.03473
 Alpha virt. eigenvalues --    0.05892   0.05892   0.05904   0.05904   0.06237
 Alpha virt. eigenvalues --    0.07061   0.07061   0.11912   0.13579   0.17828

 Mulliken charges and spin densities:
               1          2
     1  Mn   1.158958   4.824239
     2  O   -1.158958   0.175761
 Sum of Mulliken charges =  -0.00000   5.00000

 Dipole moment (field-independent basis, Debye):
    X=              0.0000    Y=              0.0000    Z=              6.1405  Tot=              6.1405
 Quadrupole moment (field-independent basis, Debye-Ang):
   XX=            -19.4004   YY=            -19.4004   ZZ=            -22.9196
   XY=              0.0000   XZ=              0.0000   YZ=              0.0000

 \\#P ROCCSD(T)=(maxcyc=150, Full, SaveAmplitudes, ReadAmplitudes)/Gen
 9.1073772\PMP2-0=-120.0739241\CCSD=-120.0415454\CCSD(T)=-120.0858702\R
 Normal termination of Gaussian 16 at Wed Mar 14 05:47:35 2018.
