 Gaussian 16, Revision A.03,
 Gaussian 16:  ES64L-G16RevA.03 25-Dec-2016

 ----------------------------------------------------------------------
 #P ROCCSD(T)=(maxcyc=150, Full)/Gen 5d 7f SCF=(maxcycles=300) Integral
 (NoXCTest) MaxDisk=500GB Pop=Regular Pseudo=Read Guess=Read
 ----------------------------------------------------------------------

 ---
 ScH
 ---
 Symbolic Z-matrix:
 Charge =  0 Multiplicity = 1

                         Standard orientation:
 ---------------------------------------------------------------------
 Center     Atomic      Atomic             Coordinates (Angstroms)
 Number     Number       Type             X           Y           Z
 ---------------------------------------------------------------------
      1         21           0        0.000000    0.000000    0.100000
      2          1           0        0.000000    0.000000   -2.100000
 ---------------------------------------------------------------------

 SCF Done:  E(ROHF) =  -46.6407988510     A.U. after    9 cycles
 E2 =    -0.4258411690D+00 EUMP2 =    -0.47066640019950D+02
 CCSD(T)
 CCSD(T)= -0.47113378901D+02

 The electronic state is 1-SG.
 Alpha  occ. eigenvalues --   -2.72029  -1.69565  -1.69565  -1.69366  -0.35677
 Alpha  occ. eigenvalues --   -0.24624
 Alpha virt. eigenvalues --    0.00825   0.00825   0.00935   0.01874   0.02549
 Alpha virt. eigenvalues --    0.02549   0.02689   0.02689   0.02775   0.03265
 Alpha virt. eigenvalues --    0.03690   0.03690   0.05939   0.05939   0.06834

 Mulliken charges and spin densities:
               1          2
     1  Sc   0.353705   0.000000
     2  H   -0.353705   0.000000
 Sum of Mulliken charges =  -0.00000   0.00000

 Dipole moment (field-independent basis, Debye):
    X=              0.0000    Y=              0.0000    Z=              2.9974  Tot=              2.9974
 Quadrupole moment (field-independent basis, Debye-Ang):
   XX=            -22.8579   YY=            -22.8579   ZZ=            -30.0587
   XY=              0.0000   XZ=              0.0000   YZ=              0.0000

 P ROCCSD(T)=(maxcyc=150, Full)/Gen 5d 7f SCF=(maxcycles=300) Integral(
 64\MP4SDQ=-47.0911177\CCSD=-47.0920886\CCSD(T)=-47.1133789\RMSD=4.511e
 Normal termination of Gaussian 16 at Tue Feb 13 12:58:46 2018.
