 Gaussian 16, Revision A.03,
 Gaussian 16:  ES64L-G16RevA.03 25-Dec-2016

 ----------------------------------------------------------------------
 #P ROCCSD(T)=(MaxCyc=150, Full)/Gen SCF=(maxcycle=400, vshift=200) Pse
 udo=Read Integral(NoXCTest) Pop=Regular MaxDisk=500GB Guess=Read IOp(5
 /15=2)
 ----------------------------------------------------------------------

 ---
 FeH
 ---
 Symbolic Z-matrix:
 Charge =  0 Multiplicity = 4

                         Standard orientation:
 ---------------------------------------------------------------------
 Center     Atomic      Atomic             Coordinates (Angstroms)
 Number     Number       Type             X           Y           Z
 ---------------------------------------------------------------------
      1         26           0        0.000000    0.000000    0.055556
      2          1           0        0.000000    0.000000   -1.444444
 ---------------------------------------------------------------------

 SCF Done:  E(ROHF) =  -123.114390083     A.U. after   28 cycles
 E2 =    -0.7709693793D+00 EUMP2 =    -0.12388535946251D+03
 CCSD(T)
 CCSD(T)= -0.12388492903D+03

 Unable to determine electronic state:  an orbital has unidentified symmetry.
 Alpha  occ. eigenvalues --   -4.25243  -2.78565  -2.77708  -2.77708  -0.50874
 Alpha  occ. eigenvalues --   -0.50874  -0.49817  -0.46427  -0.44905  -0.31656
 Alpha virt. eigenvalues --   -0.00219   0.02458   0.02458   0.03133   0.04328
 Alpha virt. eigenvalues --    0.08448   0.08448   0.09605   0.10263   0.10301
 Alpha virt. eigenvalues --    0.10385   0.10385   0.10669   0.17109   0.24140

 Mulliken charges and spin densities:
               1          2
     1  Fe   0.419693   2.997009
     2  H   -0.419693   0.002991
 Sum of Mulliken charges =  -0.00000   3.00000

 Dipole moment (field-independent basis, Debye):
    X=              0.0000    Y=              0.0000    Z=              4.1157  Tot=              4.1157
 Quadrupole moment (field-independent basis, Debye-Ang):
   XX=            -15.8601   YY=            -15.8601   ZZ=            -16.9240
   XY=              0.0000   XZ=              0.0000   YZ=              0.0000

 \\#P ROCCSD(T)=(MaxCyc=150, Full)/Gen SCF=(maxcycle=400, vshift=200) P
 \PMP2-0=-123.8853595\MP4SDQ=-123.8661393\CCSD=-123.8563184\CCSD(T)=-12
 Normal termination of Gaussian 16 at Sun Apr 22 23:02:33 2018.
