 Gaussian 16, Revision A.03,
 Gaussian 16:  ES64L-G16RevA.03 25-Dec-2016

 ----------------------------------------------------------------------
 #P ROCCSD(T)=(MaxCyc=150, Full)/Gen SCF=(maxcycle=400, vshift=200) Pse
 udo=Read Integral(NoXCTest) Pop=Regular MaxDisk=500GB Guess=Read IOp(5
 /15=2)
 ----------------------------------------------------------------------

 ---
 FeH
 ---
 Symbolic Z-matrix:
 Charge =  0 Multiplicity = 4

                         Standard orientation:
 ---------------------------------------------------------------------
 Center     Atomic      Atomic             Coordinates (Angstroms)
 Number     Number       Type             X           Y           Z
 ---------------------------------------------------------------------
      1         26           0        0.000000    0.000000    0.055556
      2          1           0        0.000000    0.000000   -1.444444
 ---------------------------------------------------------------------

 SCF Done:  E(ROHF) =  -123.115475240     A.U. after   28 cycles
 E2 =    -0.8065900519D+00 EUMP2 =    -0.12392206529202D+03
 CCSD(T)
 CCSD(T)= -0.12391949264D+03

 Unable to determine electronic state:  partially filled degenerate orbitals.
 Alpha  occ. eigenvalues --   -4.25240  -2.78554  -2.77700  -2.77700  -0.50874
 Alpha  occ. eigenvalues --   -0.50874  -0.49818  -0.46432  -0.44908  -0.31657
 Alpha virt. eigenvalues --   -0.00240   0.02227   0.02227   0.02860   0.04076
 Alpha virt. eigenvalues --    0.06233   0.06806   0.06818   0.06852   0.06852
 Alpha virt. eigenvalues --    0.07722   0.07722   0.09724   0.16684   0.17914

 Mulliken charges and spin densities:
               1          2
     1  Fe   0.301169   2.995108
     2  H   -0.301169   0.004892
 Sum of Mulliken charges =  -0.00000   3.00000

 Dipole moment (field-independent basis, Debye):
    X=              0.0000    Y=              0.0000    Z=              4.1107  Tot=              4.1107
 Quadrupole moment (field-independent basis, Debye-Ang):
   XX=            -15.8484   YY=            -15.8484   ZZ=            -16.9321
   XY=              0.0000   XZ=              0.0000   YZ=              0.0000

 \\#P ROCCSD(T)=(MaxCyc=150, Full)/Gen SCF=(maxcycle=400, vshift=200) P
 \PMP2-0=-123.9220653\MP4SDQ=-123.8991852\CCSD=-123.8893029\CCSD(T)=-12
 Normal termination of Gaussian 16 at Sun Apr 22 23:18:48 2018.
