 Gaussian 16, Revision A.03,
 Gaussian 16:  ES64L-G16RevA.03 25-Dec-2016

 ----------------------------------------------------------------------
 #P ROCCSD(T)=(MaxCyc=150, Full)/Gen SCF=(maxcycle=400, vshift=200) Pse
 udo=Read Integral(NoXCTest) Pop=Regular MaxDisk=500GB Guess=Read IOp(5
 /15=2)
 ----------------------------------------------------------------------

 ---
 FeH
 ---
 Symbolic Z-matrix:
 Charge =  0 Multiplicity = 4

                         Standard orientation:
 ---------------------------------------------------------------------
 Center     Atomic      Atomic             Coordinates (Angstroms)
 Number     Number       Type             X           Y           Z
 ---------------------------------------------------------------------
      1         26           0        0.000000    0.000000    0.055556
      2          1           0        0.000000    0.000000   -1.444444
 ---------------------------------------------------------------------

 SCF Done:  E(ROHF) =  -123.115676083     A.U. after   19 cycles
 E2 =    -0.8208552611D+00 EUMP2 =    -0.12393653134383D+03
 CCSD(T)
 CCSD(T)= -0.12393188285D+03

 Unable to determine electronic state:  an orbital has unidentified symmetry.
 Alpha  occ. eigenvalues --   -4.25237  -2.78550  -2.77695  -2.77695  -0.50870
 Alpha  occ. eigenvalues --   -0.50870  -0.49814  -0.46434  -0.44910  -0.31658
 Alpha virt. eigenvalues --   -0.00273   0.02160   0.02160   0.02553   0.03515
 Alpha virt. eigenvalues --    0.05799   0.06233   0.06243   0.06331   0.06331
 Alpha virt. eigenvalues --    0.07374   0.07374   0.08513   0.13027   0.16886

 Mulliken charges and spin densities:
               1          2
     1  Fe   0.277775   2.994893
     2  H   -0.277775   0.005107
 Sum of Mulliken charges =  -0.00000   3.00000

 Dipole moment (field-independent basis, Debye):
    X=              0.0000    Y=              0.0000    Z=              4.1105  Tot=              4.1105
 Quadrupole moment (field-independent basis, Debye-Ang):
   XX=            -15.8460   YY=            -15.8460   ZZ=            -16.9347
   XY=              0.0000   XZ=              0.0000   YZ=              0.0000

 \\#P ROCCSD(T)=(MaxCyc=150, Full)/Gen SCF=(maxcycle=400, vshift=200) P
 \PMP2-0=-123.9365313\MP4SDQ=-123.9109921\CCSD=-123.9011322\CCSD(T)=-12
 Normal termination of Gaussian 16 at Sun Apr 22 23:59:15 2018.
