 Gaussian 16, Revision A.03,
 Gaussian 16:  ES64L-G16RevA.03 25-Dec-2016

 ----------------------------------------------------------------------
 #P ROCCSD(T)=(maxcyc=150, Full)/Gen 5d 7f SCF=(maxcycles=300) Integral
 (NoXCTest) MaxDisk=500GB Pop=Regular Pseudo=Read
 ----------------------------------------------------------------------

 ---
 ScH
 ---
 Symbolic Z-matrix:
 Charge =  0 Multiplicity = 1

                         Standard orientation:
 ---------------------------------------------------------------------
 Center     Atomic      Atomic             Coordinates (Angstroms)
 Number     Number       Type             X           Y           Z
 ---------------------------------------------------------------------
      1         21           0        0.000000    0.000000    0.068182
      2          1           0        0.000000    0.000000   -1.431818
 ---------------------------------------------------------------------

 SCF Done:  E(ROHF) =  -46.6428568304     A.U. after   12 cycles
 E2 =    -0.4122598412D+00 EUMP2 =    -0.47055116671673D+02
 CCSD(T)
 CCSD(T)= -0.47097581178D+02

 The electronic state is 1-SG.
 Alpha  occ. eigenvalues --   -2.65454  -1.64289  -1.63301  -1.63301  -0.44172
 Alpha  occ. eigenvalues --   -0.22247
 Alpha virt. eigenvalues --    0.01286   0.01286   0.01640   0.02166   0.03510
 Alpha virt. eigenvalues --    0.03901   0.03901   0.03915   0.03915   0.04751
 Alpha virt. eigenvalues --    0.04751   0.04997   0.09334   0.09513   0.09513

 Mulliken charges and spin densities:
               1          2
     1  Sc   0.424669  -0.000000
     2  H   -0.424669  -0.000000
 Sum of Mulliken charges =   0.00000  -0.00000

 Dipole moment (field-independent basis, Debye):
    X=              0.0000    Y=              0.0000    Z=              0.7925  Tot=              0.7925
 Quadrupole moment (field-independent basis, Debye-Ang):
   XX=            -23.3480   YY=            -23.3480   ZZ=            -24.5535
   XY=              0.0000   XZ=              0.0000   YZ=              0.0000

 P ROCCSD(T)=(maxcyc=150, Full)/Gen 5d 7f SCF=(maxcycles=300) Integral(
 DQ=-47.0802134\CCSD=-47.0796645\CCSD(T)=-47.0975812\RMSD=4.742e-09\PG=
 Normal termination of Gaussian 16 at Mon Feb 12 23:22:55 2018.
