 Gaussian 16, Revision A.03,
 Gaussian 16:  ES64L-G16RevA.03 25-Dec-2016

 ----------------------------------------------------------------------
 #P ROCCSD(T)=(maxcyc=150, Full, SaveAmplitudes, ReadAmplitudes)/Gen 5d
  7f SCF=(maxcycles=300) Integral(NoXCTest) MaxDisk=500GB Pop=Regular P
 seudo=Read Guess=Read IOp(5/15=2)
 ----------------------------------------------------------------------

 ---
 MnH
 ---
 Symbolic Z-matrix:
 Charge =  0 Multiplicity = 7

                         Standard orientation:
 ---------------------------------------------------------------------
 Center     Atomic      Atomic             Coordinates (Angstroms)
 Number     Number       Type             X           Y           Z
 ---------------------------------------------------------------------
      1         25           0        0.000000    0.000000    0.053846
      2          1           0        0.000000    0.000000   -1.346154
 ---------------------------------------------------------------------

 SCF Done:  E(ROHF) =  -104.205760809     A.U. after   27 cycles
 E2 =    -0.5846041502D+00 EUMP2 =    -0.10479036495870D+03
 CCSD(T)
 CCSD(T)= -0.10481141443D+03

 The electronic state is 7-SG.
 Alpha  occ. eigenvalues --   -4.16949  -2.75964  -2.75735  -2.75735  -0.66050
 Alpha  occ. eigenvalues --   -0.64346  -0.64346  -0.63936  -0.63936  -0.42110
 Alpha  occ. eigenvalues --   -0.24760
 Alpha virt. eigenvalues --    0.01401   0.01401   0.02201   0.03233   0.05896
 Alpha virt. eigenvalues --    0.05896   0.08514   0.08514   0.08527   0.08960
 Alpha virt. eigenvalues --    0.08960   0.09219   0.14154   0.21110   0.22879

 Mulliken charges and spin densities:
               1          2
     1  Mn   0.444337   5.949192
     2  H   -0.444337   0.050808
 Sum of Mulliken charges =  -0.00000   6.00000

 Dipole moment (field-independent basis, Debye):
    X=              0.0000    Y=              0.0000    Z=              0.3017  Tot=              0.3017
 Quadrupole moment (field-independent basis, Debye-Ang):
   XX=            -15.9170   YY=            -15.9170   ZZ=            -25.3778
   XY=              0.0000   XZ=              0.0000   YZ=              0.0000

 \\#P ROCCSD(T)=(maxcyc=150, Full, SaveAmplitudes, ReadAmplitudes)/Gen
 942974\CCSD=-104.7951162\CCSD(T)=-104.8114144\RMSD=7.691e-09\PG=C*V [C
 Normal termination of Gaussian 16 at Mon Feb 26 03:35:09 2018.
