 Gaussian 16, Revision A.03,
 Gaussian 16:  ES64L-G16RevA.03 25-Dec-2016

 ----------------------------------------------------------------------
 #P ROCCSD(T)=(maxcyc=150, Full, SaveAmplitudes, ReadAmplitudes)/Gen 5d
  7f SCF=(maxcycles=300) Integral(NoXCTest) MaxDisk=500GB Pop=Regular P
 seudo=Read Guess=Read
 ----------------------------------------------------------------------

 ---
 CrO
 ---
 Symbolic Z-matrix:
 Charge =  0 Multiplicity = 5

                         Standard orientation:
 ---------------------------------------------------------------------
 Center     Atomic      Atomic             Coordinates (Angstroms)
 Number     Number       Type             X           Y           Z
 ---------------------------------------------------------------------
      1         24           0        0.000000    0.000000    0.325000
      2          8           0        0.000000    0.000000   -0.975000
 ---------------------------------------------------------------------

 SCF Done:  E(ROHF) =  -101.909883222     A.U. after   22 cycles
 E2 =    -0.9306894651D+00 EUMP2 =    -0.10284057268701D+03
 CCSD(T)
 CCSD(T)= -0.10284936641D+03

 Unable to determine electronic state:  an orbital has unidentified symmetry.
 Alpha  occ. eigenvalues --   -3.74553  -2.44972  -2.43707  -2.40692  -1.24082
 Alpha  occ. eigenvalues --   -0.68853  -0.59600  -0.59395  -0.51635  -0.51218
 Alpha  occ. eigenvalues --   -0.35620  -0.27253
 Alpha virt. eigenvalues --    0.01321   0.01935   0.02277   0.02650   0.04795
 Alpha virt. eigenvalues --    0.05026   0.05421   0.05421   0.05523   0.05696
 Alpha virt. eigenvalues --    0.07587   0.08049   0.10321   0.13895   0.14782

 Mulliken charges and spin densities:
               1          2
     1  Cr   0.850548   3.850630
     2  O   -0.850548   0.149370
 Sum of Mulliken charges =  -0.00000   4.00000

 Dipole moment (field-independent basis, Debye):
    X=              0.0000    Y=              0.0000    Z=              1.8306  Tot=              1.8306
 Quadrupole moment (field-independent basis, Debye-Ang):
   XX=            -21.3177   YY=            -19.6678   ZZ=            -23.4504
   XY=              0.0000   XZ=              0.0000   YZ=              0.0000

 \\#P ROCCSD(T)=(maxcyc=150, Full, SaveAmplitudes, ReadAmplitudes)/Gen
 MP2-0=-102.8405727\CCSD=-102.8048663\CCSD(T)=-102.8493664\RMSD=8.947e-
 Normal termination of Gaussian 16 at Tue Mar 13 04:22:40 2018.
