 Gaussian 16, Revision A.03,
 Gaussian 16:  ES64L-G16RevA.03 25-Dec-2016

 ----------------------------------------------------------------------
 #P ROCCSD(T)=(maxcyc=150, Full)/Gen 5d 7f SCF=(maxcycles=300, NoVarAcc
 , VShift=200) MaxDisk=100GB Pop=Regular Pseudo=Read Guess=Read
 ----------------------------------------------------------------------

 --
 Mn
 --
 Symbolic Z-matrix:
 Charge =  0 Multiplicity = 6

                         Standard orientation:
 ---------------------------------------------------------------------
 Center     Atomic      Atomic             Coordinates (Angstroms)
 Number     Number       Type             X           Y           Z
 ---------------------------------------------------------------------
      1         25           0        0.000000    0.000000    0.000000
 ---------------------------------------------------------------------

 SCF Done:  E(ROHF) =  -103.451022738     A.U. after   10 cycles
 E2 =    -0.5655795305D+00 EUMP2 =    -0.10401660226844D+03
 CCSD(T)
 CCSD(T)= -0.10403806316D+03

 The electronic state is 6-A1G.
 Alpha  occ. eigenvalues --   -4.15084  -2.79431  -2.79431  -2.79431  -0.62920
 Alpha  occ. eigenvalues --   -0.62920  -0.62920  -0.62920  -0.62920  -0.26824
 Alpha virt. eigenvalues --    0.01835   0.01835   0.01835   0.02663   0.06568
 Alpha virt. eigenvalues --    0.06568   0.06568   0.08966   0.08966   0.08966
 Alpha virt. eigenvalues --    0.08966   0.08966   0.13911   0.24199   0.24199

 Mulliken charges and spin densities:
               1          2
     1  Mn   0.000000   5.000000
 Sum of Mulliken charges =   0.00000   5.00000

 Dipole moment (field-independent basis, Debye):
    X=              0.0000    Y=              0.0000    Z=              0.0000  Tot=              0.0000
 Quadrupole moment (field-independent basis, Debye-Ang):
   XX=            -18.8421   YY=            -18.8421   ZZ=            -18.8421
   XY=              0.0000   XZ=              0.0000   YZ=             -0.0000

 1\1\GINC-C506-033\SP\ROCCSD(T)-Full\Gen\Mn1(6)\AANNABE\16-Mar-2018\0\\
 #P ROCCSD(T)=(maxcyc=150, Full)/Gen 5d 7f SCF=(maxcycles=300, NoVarAcc
 , VShift=200) MaxDisk=100GB Pop=Regular Pseudo=Read Guess=Read\\Mn\\0,
 6\Mn,0,0.,0.,0.\\Version=ES64L-G16RevA.03\State=6-A1G\HF=-103.4510227\
 MP2=-104.0166023\MP3=-104.0175851\PUHF=-103.4510227\PMP2-0=-104.016602
 3\MP4SDQ=-104.0206353\CCSD=-104.0207458\CCSD(T)=-104.0380632\RMSD=5.70
 3e-09\PG=OH [O(Mn1)]\\@

 Normal termination of Gaussian 16 at Fri Mar 16 11:41:02 2018.
