 Gaussian 16, Revision A.03,
 Gaussian 16:  ES64L-G16RevA.03 25-Dec-2016

 ----------------------------------------------------------------------
 #P ROCCSD(T)=(maxcyc=150, Full)/Gen 5d 7f SCF=(maxcycles=300) Integral
 (NoXCTest) MaxDisk=500GB Pop=Regular Pseudo=Read Guess=Read
 ----------------------------------------------------------------------

 ---
 CrH
 ---
 Symbolic Z-matrix:
 Charge =  0 Multiplicity = 6

                         Standard orientation:
 ---------------------------------------------------------------------
 Center     Atomic      Atomic             Coordinates (Angstroms)
 Number     Number       Type             X           Y           Z
 ---------------------------------------------------------------------
      1         24           0        0.000000    0.000000    0.068000
      2          1           0        0.000000    0.000000   -1.632000
 ---------------------------------------------------------------------

 SCF Done:  E(ROHF) =  -86.6951341191     A.U. after   22 cycles
 E2 =    -0.5565032121D+00 EUMP2 =    -0.87251637331178D+02
 CCSD(T)
 CCSD(T)= -0.87298457667D+02

 The electronic state is 6-SG.
 Alpha  occ. eigenvalues --   -3.72171  -2.47674  -2.47674  -2.43068  -0.54521
 Alpha  occ. eigenvalues --   -0.54521  -0.51330  -0.51330  -0.40622  -0.26062
 Alpha virt. eigenvalues --    0.01246   0.01246   0.01966   0.02361   0.04593
 Alpha virt. eigenvalues --    0.05025   0.05025   0.05342   0.05342   0.05660
 Alpha virt. eigenvalues --    0.05660   0.06677   0.09568   0.12487   0.16788

 Mulliken charges and spin densities:
               1          2
     1  Cr   0.325390   4.980907
     2  H   -0.325390   0.019093
 Sum of Mulliken charges =  -0.00000   5.00000

 Dipole moment (field-independent basis, Debye):
    X=              0.0000    Y=              0.0000    Z=              2.2115  Tot=              2.2115
 Quadrupole moment (field-independent basis, Debye-Ang):
   XX=            -17.0335   YY=            -17.0335   ZZ=            -24.1122
   XY=              0.0000   XZ=              0.0000   YZ=              0.0000

 \\#P ROCCSD(T)=(maxcyc=150, Full)/Gen 5d 7f SCF=(maxcycles=300) Integr
 7.2516373\MP4SDQ=-87.2642767\CCSD=-87.2809204\CCSD(T)=-87.2984577\RMSD
 Normal termination of Gaussian 16 at Tue Feb 13 07:27:36 2018.
