 Gaussian 16, Revision A.03,
 Gaussian 16:  ES64L-G16RevA.03 25-Dec-2016

 ----------------------------------------------------------------------
 #P ROCCSD(T)=(MaxCyc=150, Full)/Gen SCF=(maxcycle=400) Pseudo=Read Int
 egral(NoXCTest) Pop=Regular MaxDisk=500GB Guess=Read IOp(5/15=2)
 ----------------------------------------------------------------------

 ---
 CoO
 ---
 Symbolic Z-matrix:
 Charge =  0 Multiplicity = 4

                         Standard orientation:
 ---------------------------------------------------------------------
 Center     Atomic      Atomic             Coordinates (Angstroms)
 Number     Number       Type             X           Y           Z
 ---------------------------------------------------------------------
      1         27           0        0.000000    0.000000    0.388571
      2          8           0        0.000000    0.000000   -1.311429
 ---------------------------------------------------------------------

 SCF Done:  E(ROHF) =  -160.619765108     A.U. after   27 cycles
 E2 =    -0.1082491260D+01 EUMP2 =    -0.16170225636804D+03
 CCSD(T)
 CCSD(T)= -0.16172781028D+03

 Unable to determine electronic state:  partially filled degenerate orbitals.
 Alpha  occ. eigenvalues --   -4.70843  -3.22893  -3.22786  -3.22786  -1.13507
 Alpha  occ. eigenvalues --   -0.76439  -0.76439  -0.75854  -0.70663  -0.68213
 Alpha  occ. eigenvalues --   -0.37918  -0.37918  -0.35845
 Alpha virt. eigenvalues --   -0.05261   0.01996   0.01996   0.02107   0.04189
 Alpha virt. eigenvalues --    0.07571   0.07571   0.09801   0.10706   0.10735
 Alpha virt. eigenvalues --    0.11620   0.11620   0.14790   0.15306   0.26117

 Mulliken charges and spin densities:
               1          2
     1  Co   1.044609   2.934632
     2  O   -1.044609   0.065368
 Sum of Mulliken charges =  -0.00000   3.00000

 Dipole moment (field-independent basis, Debye):
    X=              0.0000    Y=              0.0000    Z=              8.1287  Tot=              8.1287
 Quadrupole moment (field-independent basis, Debye-Ang):
   XX=            -18.9074   YY=            -18.9074   ZZ=            -22.1219
   XY=              0.0000   XZ=              0.0000   YZ=              0.0000

 \\#P ROCCSD(T)=(MaxCyc=150, Full)/Gen SCF=(maxcycle=400) Pseudo=Read I
 .7022564\MP4SDQ=-161.6826165\CCSD=-161.6717848\CCSD(T)=-161.7278103\RM
 Normal termination of Gaussian 16 at Sat Mar 31 14:43:00 2018.
