 Gaussian 16, Revision A.03,
 Gaussian 16:  ES64L-G16RevA.03 25-Dec-2016

 ----------------------------------------------------------------------
 #P ROCCSD(T)=(MaxCyc=150, Full)/Gen SCF=(maxcycle=400) Pseudo=Read Int
 egral(NoXCTest) Pop=Regular MaxDisk=500GB Guess=Read IOp(5/15=2)
 ----------------------------------------------------------------------

 ---
 CoO
 ---
 Symbolic Z-matrix:
 Charge =  0 Multiplicity = 4

                         Standard orientation:
 ---------------------------------------------------------------------
 Center     Atomic      Atomic             Coordinates (Angstroms)
 Number     Number       Type             X           Y           Z
 ---------------------------------------------------------------------
      1         27           0        0.000000    0.000000    0.388571
      2          8           0        0.000000    0.000000   -1.311429
 ---------------------------------------------------------------------

 SCF Done:  E(ROHF) =  -160.622779150     A.U. after   20 cycles
 E2 =    -0.1134083488D+01 EUMP2 =    -0.16175686263854D+03
 CCSD(T)
 CCSD(T)= -0.16177966050D+03

 Unable to determine electronic state:  partially filled degenerate orbitals.
 Alpha  occ. eigenvalues --   -4.70789  -3.22859  -3.22755  -3.22755  -1.13467
 Alpha  occ. eigenvalues --   -0.76437  -0.76437  -0.75852  -0.70661  -0.68207
 Alpha  occ. eigenvalues --   -0.37926  -0.37926  -0.35830
 Alpha virt. eigenvalues --   -0.05254   0.01699   0.01699   0.01861   0.03761
 Alpha virt. eigenvalues --    0.06629   0.06629   0.07066   0.07075   0.07093
 Alpha virt. eigenvalues --    0.08210   0.08210   0.12521   0.14273   0.20915

 Mulliken charges and spin densities:
               1          2
     1  Co   1.010785   2.935183
     2  O   -1.010785   0.064817
 Sum of Mulliken charges =  -0.00000   3.00000

 Dipole moment (field-independent basis, Debye):
    X=              0.0000    Y=              0.0000    Z=              8.1176  Tot=              8.1176
 Quadrupole moment (field-independent basis, Debye-Ang):
   XX=            -18.9038   YY=            -18.9038   ZZ=            -22.1017
   XY=              0.0000   XZ=              0.0000   YZ=              0.0000

 \\#P ROCCSD(T)=(MaxCyc=150, Full)/Gen SCF=(maxcycle=400) Pseudo=Read I
 .7568626\MP4SDQ=-161.7313586\CCSD=-161.7213942\CCSD(T)=-161.7796605\RM
 Normal termination of Gaussian 16 at Sat Mar 31 17:04:14 2018.
