 Gaussian 16, Revision A.03,
 Gaussian 16:  ES64L-G16RevA.03 25-Dec-2016

 ----------------------------------------------------------------------
 #P ROCCSD(T)=(maxcyc=150, Full, SaveAmplitudes, ReadAmplitudes)/Gen 5d
  7f SCF=(maxcycles=300) Integral(NoXCTest) MaxDisk=500GB Pop=Regular P
 seudo=Read Guess=Read
 ----------------------------------------------------------------------

 ---
 MnH
 ---
 Symbolic Z-matrix:
 Charge =  0 Multiplicity = 7

                         Standard orientation:
 ---------------------------------------------------------------------
 Center     Atomic      Atomic             Coordinates (Angstroms)
 Number     Number       Type             X           Y           Z
 ---------------------------------------------------------------------
      1         25           0        0.000000    0.000000    0.076923
      2          1           0        0.000000    0.000000   -1.923077
 ---------------------------------------------------------------------

 SCF Done:  E(ROHF) =  -104.063417712     A.U. after   20 cycles
 E2 =    -0.5905115154D+00 EUMP2 =    -0.10465392922756D+03
 CCSD(T)
 CCSD(T)= -0.10467714233D+03

 The electronic state is 7-SG.
 Alpha  occ. eigenvalues --   -4.25564  -2.81186  -2.81186  -2.80892  -0.65844
 Alpha  occ. eigenvalues --   -0.65844  -0.65161  -0.65161  -0.65117  -0.38705
 Alpha  occ. eigenvalues --   -0.27009
 Alpha virt. eigenvalues --    0.00948   0.00948   0.02151   0.02897   0.04845
 Alpha virt. eigenvalues --    0.04845   0.05574   0.05753   0.05753   0.06195
 Alpha virt. eigenvalues --    0.06195   0.09621   0.12184   0.13645   0.17995

 Mulliken charges and spin densities:
               1          2
     1  Mn   0.386758   5.951919
     2  H   -0.386758   0.048081
 Sum of Mulliken charges =  -0.00000   6.00000

 Dipole moment (field-independent basis, Debye):
    X=              0.0000    Y=              0.0000    Z=              2.4085  Tot=              2.4085
 Quadrupole moment (field-independent basis, Debye-Ang):
   XX=            -16.4826   YY=            -16.4826   ZZ=            -28.0774
   XY=              0.0000   XZ=              0.0000   YZ=              0.0000

 \\#P ROCCSD(T)=(maxcyc=150, Full, SaveAmplitudes, ReadAmplitudes)/Gen
 .0634177\PMP2-0=-104.6539292\CCSD=-104.6609054\CCSD(T)=-104.6771423\RM
 Normal termination of Gaussian 16 at Mon Feb 26 19:10:46 2018.
