 Gaussian 16, Revision A.03,
 Gaussian 16:  ES64L-G16RevA.03 25-Dec-2016

 ----------------------------------------------------------------------
 #P ROCCSD(T)=(maxcyc=150, Full)/Gen 5d 7f SCF=(maxcycles=300, NoVarAcc
 , VShift=300) Integral(NoXCTest, DKHSO) MaxDisk=100GB Pop=Regular IOp(
 5/15=2)
 ----------------------------------------------------------------------

 --
 Cr
 --
 Symbolic Z-matrix:
 Charge =  0 Multiplicity = 7

                         Standard orientation:
 ---------------------------------------------------------------------
 Center     Atomic      Atomic             Coordinates (Angstroms)
 Number     Number       Type             X           Y           Z
 ---------------------------------------------------------------------
      1         24           0        0.000000    0.000000    0.000000
 ---------------------------------------------------------------------

 SCF Done:  E(ROHF) =  -1049.66431334     A.U. after   42 cycles
 E2 =    -0.9747419989D+00 EUMP2 =    -0.10506390553343D+04
 CCSD(T)
 CCSD(T)= -0.10506354056D+04

 The electronic state is 7-A1G.
 Alpha  occ. eigenvalues -- -222.03476 -26.60968 -22.24616 -22.24616 -22.24616
 Alpha  occ. eigenvalues --   -3.51415  -2.27176  -2.27176  -2.27176  -0.36688
 Alpha  occ. eigenvalues --   -0.36688  -0.36688  -0.36688  -0.36688  -0.22622
 Alpha virt. eigenvalues --    0.01682   0.01682   0.01682   0.02263   0.05110
 Alpha virt. eigenvalues --    0.05110   0.05110   0.05110   0.05110   0.05701
 Alpha virt. eigenvalues --    0.05701   0.05701   0.11296   0.16241   0.16241

 Mulliken charges and spin densities:
               1          2
     1  Cr  -0.000000   6.000000
 Sum of Mulliken charges =  -0.00000   6.00000

 Dipole moment (field-independent basis, Debye):
    X=              0.0000    Y=              0.0000    Z=              0.0000  Tot=              0.0000
 Quadrupole moment (field-independent basis, Debye-Ang):
   XX=            -16.7515   YY=            -16.7515   ZZ=            -16.7515
   XY=              0.0000   XZ=             -0.0000   YZ=              0.0000

 1\1\GINC-C506-001\SP\ROCCSD(T)-Full\Gen\Cr1(7)\AANNABE\07-Mar-2018\0\\
 #P ROCCSD(T)=(maxcyc=150, Full)/Gen 5d 7f SCF=(maxcycles=300, NoVarAcc
 , VShift=300) Integral(NoXCTest, DKHSO) MaxDisk=100GB Pop=Regular IOp(
 5/15=2)\\Cr\\0,7\Cr,0,0.,0.,0.\\Version=ES64L-G16RevA.03\State=7-A1G\H
 F=-1049.6643133\MP2=-1050.6390553\MP3=-1050.6121963\PUHF=-1049.6643133
 \PMP2-0=-1050.6390553\MP4SDQ=-1050.6186379\CCSD=-1050.6166986\CCSD(T)=
 -1050.6354056\RMSD=4.218e-09\PG=OH [O(Cr1)]\\@

 Normal termination of Gaussian 16 at Wed Mar  7 17:42:05 2018.
