 Gaussian 16, Revision A.03,
 Gaussian 16:  ES64L-G16RevA.03 25-Dec-2016

 ----------------------------------------------------------------------
 #P ROCCSD(T)=(maxcyc=150, Full)/Gen 5d 7f SCF=(maxcycles=300, NoVarAcc
 , VShift=200) MaxDisk=100GB Pop=Regular Pseudo=Read Guess=Read IOp(5/1
 5=2)
 ----------------------------------------------------------------------

 --
 Cr
 --
 Symbolic Z-matrix:
 Charge =  0 Multiplicity = 7

                         Standard orientation:
 ---------------------------------------------------------------------
 Center     Atomic      Atomic             Coordinates (Angstroms)
 Number     Number       Type             X           Y           Z
 ---------------------------------------------------------------------
      1         24           0        0.000000    0.000000    0.000000
 ---------------------------------------------------------------------

 SCF Done:  E(ROHF) =  -86.2209121173     A.U. after   51 cycles
 E2 =    -0.5620174489D+00 EUMP2 =    -0.86782929566143D+02
 CCSD(T)
 CCSD(T)= -0.86792043933D+02

 The electronic state is 7-A1G.
 Alpha  occ. eigenvalues --   -3.57868  -2.32582  -2.32582  -2.32582  -0.36846
 Alpha  occ. eigenvalues --   -0.36846  -0.36846  -0.36846  -0.36846  -0.22640
 Alpha virt. eigenvalues --    0.01682   0.01682   0.01682   0.02261   0.05110
 Alpha virt. eigenvalues --    0.05110   0.05110   0.05110   0.05110   0.05697
 Alpha virt. eigenvalues --    0.05697   0.05697   0.11289   0.16243   0.16243

 Mulliken charges and spin densities:
               1          2
     1  Cr  -0.000000   6.000000
 Sum of Mulliken charges =  -0.00000   6.00000

 Dipole moment (field-independent basis, Debye):
    X=              0.0000    Y=              0.0000    Z=              0.0000  Tot=              0.0000
 Quadrupole moment (field-independent basis, Debye-Ang):
   XX=            -16.4229   YY=            -16.4229   ZZ=            -16.4229
   XY=              0.0000   XZ=             -0.0000   YZ=             -0.0000

 1\1\GINC-C455-083\SP\ROCCSD(T)-Full\Gen\Cr1(7)\AANNABE\01-Apr-2018\0\\
 #P ROCCSD(T)=(maxcyc=150, Full)/Gen 5d 7f SCF=(maxcycles=300, NoVarAcc
 , VShift=200) MaxDisk=100GB Pop=Regular Pseudo=Read Guess=Read IOp(5/1
 5=2)\\Cr\\0,7\Cr,0,0.,0.,0.\\Version=ES64L-G16RevA.03\State=7-A1G\HF=-
 86.2209121\MP2=-86.7829296\MP3=-86.7728708\PUHF=-86.2209121\PMP2-0=-86
 .7829296\MP4SDQ=-86.7755776\CCSD=-86.7747272\CCSD(T)=-86.7920439\RMSD=
 8.600e-09\PG=OH [O(Cr1)]\\@

 Normal termination of Gaussian 16 at Sun Apr  1 14:12:08 2018.
