 Gaussian 16, Revision A.03,
 Gaussian 16:  ES64L-G16RevA.03 25-Dec-2016

 ----------------------------------------------------------------------
 #P ROCCSD(T)=(maxcyc=150, Full, SaveAmplitudes, ReadAmplitudes)/Gen 5d
  7f SCF=(maxcycles=300) Integral(NoXCTest) MaxDisk=500GB Pop=Regular P
 seudo=Read Guess=Read IOp(5/15=2)
 ----------------------------------------------------------------------

 ---
 ScO
 ---
 Symbolic Z-matrix:
 Charge =  0 Multiplicity = 2

                         Standard orientation:
 ---------------------------------------------------------------------
 Center     Atomic      Atomic             Coordinates (Angstroms)
 Number     Number       Type             X           Y           Z
 ---------------------------------------------------------------------
      1         21           0        0.000000    0.000000    0.386207
      2          8           0        0.000000    0.000000   -1.013793
 ---------------------------------------------------------------------

 SCF Done:  E(ROHF) =  -61.8834710582     A.U. after   16 cycles
 E2 =    -0.6730176816D+00 EUMP2 =    -0.62556488739798D+02
 CCSD(T)
 CCSD(T)= -0.62583987580D+02

 The electronic state is 2-SG.
 Alpha  occ. eigenvalues --   -2.58925  -1.71564  -1.54889  -1.54889  -1.09421
 Alpha  occ. eigenvalues --   -0.52516  -0.52516  -0.46181  -0.21024
 Alpha virt. eigenvalues --    0.00844   0.00844   0.02201   0.02228   0.03750
 Alpha virt. eigenvalues --    0.03750   0.03837   0.03837   0.03992   0.04559
 Alpha virt. eigenvalues --    0.04559   0.07107   0.10404   0.10404   0.10956

 Mulliken charges and spin densities:
               1          2
     1  Sc   1.254375   0.988578
     2  O   -1.254375   0.011422
 Sum of Mulliken charges =  -0.00000   1.00000

 Dipole moment (field-independent basis, Debye):
    X=              0.0000    Y=              0.0000    Z=              1.5183  Tot=              1.5183
 Quadrupole moment (field-independent basis, Debye-Ang):
   XX=            -22.2856   YY=            -22.2856   ZZ=            -30.2636
   XY=              0.0000   XZ=              0.0000   YZ=              0.0000

 \\#P ROCCSD(T)=(maxcyc=150, Full, SaveAmplitudes, ReadAmplitudes)/Gen
 \CCSD=-62.5513295\CCSD(T)=-62.5839876\RMSD=4.006e-09\PG=C*V [C*(O1Sc1)
 Normal termination of Gaussian 16 at Wed Mar 14 05:30:32 2018.
