 Gaussian 16, Revision A.03,
 Gaussian 16:  ES64L-G16RevA.03 25-Dec-2016

 ----------------------------------------------------------------------
 #P ROCCSD(T)=(maxcyc=150, Full, SaveAmplitudes, ReadAmplitudes)/Gen 5d
  7f SCF=(maxcycles=300) Integral(NoXCTest) MaxDisk=500GB Pop=Regular P
 seudo=Read Guess=Read IOp(5/15=2)
 ----------------------------------------------------------------------

 ---
 MnH
 ---
 Symbolic Z-matrix:
 Charge =  0 Multiplicity = 7

                         Standard orientation:
 ---------------------------------------------------------------------
 Center     Atomic      Atomic             Coordinates (Angstroms)
 Number     Number       Type             X           Y           Z
 ---------------------------------------------------------------------
      1         25           0        0.000000    0.000000    0.073077
      2          1           0        0.000000    0.000000   -1.826923
 ---------------------------------------------------------------------

 SCF Done:  E(ROHF) =  -104.242860716     A.U. after   25 cycles
 E2 =    -0.5694303739D+00 EUMP2 =    -0.10481229108983D+03
 CCSD(T)
 CCSD(T)= -0.10483575143D+03

 The electronic state is 7-SG.
 Alpha  occ. eigenvalues --   -4.18580  -2.77565  -2.77565  -2.77304  -0.66054
 Alpha  occ. eigenvalues --   -0.66054  -0.65429  -0.65378  -0.65378  -0.39499
 Alpha  occ. eigenvalues --   -0.26704
 Alpha virt. eigenvalues --    0.01134   0.01134   0.02321   0.03118   0.05628
 Alpha virt. eigenvalues --    0.05628   0.08082   0.08412   0.08412   0.08901
 Alpha virt. eigenvalues --    0.08901   0.10166   0.13499   0.18669   0.22560

 Mulliken charges and spin densities:
               1          2
     1  Mn   0.428342   5.955326
     2  H   -0.428342   0.044674
 Sum of Mulliken charges =   0.00000   6.00000

 Dipole moment (field-independent basis, Debye):
    X=              0.0000    Y=              0.0000    Z=              2.0659  Tot=              2.0659
 Quadrupole moment (field-independent basis, Debye-Ang):
   XX=            -16.2819   YY=            -16.2819   ZZ=            -27.3025
   XY=              0.0000   XZ=              0.0000   YZ=              0.0000

 \\#P ROCCSD(T)=(maxcyc=150, Full, SaveAmplitudes, ReadAmplitudes)/Gen
 .8192569\CCSD=-104.8202729\CCSD(T)=-104.8357514\RMSD=8.518e-09\PG=C*V
 Normal termination of Gaussian 16 at Mon Feb 26 16:12:16 2018.
