 Gaussian 16, Revision A.03,
 Gaussian 16:  ES64L-G16RevA.03 25-Dec-2016

 ----------------------------------------------------------------------
 #P ROCCSD(T)=(maxcyc=150, Full)/Gen 5d 7f SCF=(maxcycles=300) Integral
 (NoXCTest, DKHSO) MaxDisk=500GB Pop=Regular IOp(5/15=2) Guess=Read
 ----------------------------------------------------------------------

 ---
 CrH
 ---
 Symbolic Z-matrix:
 Charge =  0 Multiplicity = 6

                         Standard orientation:
 ---------------------------------------------------------------------
 Center     Atomic      Atomic             Coordinates (Angstroms)
 Number     Number       Type             X           Y           Z
 ---------------------------------------------------------------------
      1         24           0        0.000000    0.000000    0.084000
      2          1           0        0.000000    0.000000   -2.016000
 ---------------------------------------------------------------------

 SCF Done:  E(ROHF) =  -1050.18911146     A.U. after   22 cycles
 E2 =    -0.9372567295D+00 EUMP2 =    -0.10511263681862D+04
 CCSD(T)
 CCSD(T)= -0.10511682143D+04

 The electronic state is 6-SG.
 Alpha  occ. eigenvalues -- -222.24339 -26.83667 -22.47060 -22.47060 -22.47058
 Alpha  occ. eigenvalues --   -3.70839  -2.46265  -2.46265  -2.41880  -0.58544
 Alpha  occ. eigenvalues --   -0.58544  -0.54989  -0.54989  -0.37029  -0.26992
 Alpha virt. eigenvalues --    0.00874   0.00874   0.01797   0.02525   0.04467
 Alpha virt. eigenvalues --    0.04659   0.04659   0.05240   0.05240   0.05654
 Alpha virt. eigenvalues --    0.05654   0.06598   0.09715   0.12079   0.15559

 Mulliken charges and spin densities:
               1          2
     1  Cr   0.351884   4.972848
     2  H   -0.351884   0.027152
 Sum of Mulliken charges =  -0.00000   5.00000

 Dipole moment (field-independent basis, Debye):
    X=              0.0000    Y=             -0.0000    Z=              3.2540  Tot=              3.2540
 Quadrupole moment (field-independent basis, Debye-Ang):
   XX=            -17.6344   YY=            -17.6344   ZZ=            -28.2457
   XY=              0.0000   XZ=              0.0000   YZ=             -0.0000

 \\#P ROCCSD(T)=(maxcyc=150, Full)/Gen 5d 7f SCF=(maxcycles=300) Integr
 Normal termination of Gaussian 16 at Tue Feb 13 20:09:35 2018.
