 Gaussian 16, Revision A.03,
 Gaussian 16:  ES64L-G16RevA.03 25-Dec-2016

 ----------------------------------------------------------------------
 #P ROCCSD(T)=(maxcyc=150, Full, SaveAmplitudes, ReadAmplitudes)/Gen 5d
  7f SCF=(maxcycles=300) Integral(NoXCTest, DKHSO) MaxDisk=500GB Pop=Re
 gular Guess=Read
 ----------------------------------------------------------------------

 ---
 ScO
 ---
 Symbolic Z-matrix:
 Charge =  0 Multiplicity = 2

                         Standard orientation:
 ---------------------------------------------------------------------
 Center     Atomic      Atomic             Coordinates (Angstroms)
 Number     Number       Type             X           Y           Z
 ---------------------------------------------------------------------
      1         21           0        0.000000    0.000000    0.413793
      2          8           0        0.000000    0.000000   -1.086207
 ---------------------------------------------------------------------

 SCF Done:  E(ROHF) =  -838.255817538     A.U. after   17 cycles
 E2 =    -0.1125372092D+01 EUMP2 =    -0.83938118963024D+03
 CCSD(T)
 CCSD(T)= -0.83939915672D+03

 The electronic state is 2-SG.
 Alpha  occ. eigenvalues -- -166.80721 -20.50152 -19.25052 -15.67350 -15.67350
 Alpha  occ. eigenvalues --  -15.67234  -2.59597  -1.67661  -1.57427  -1.57427
 Alpha  occ. eigenvalues --   -1.10167  -0.47847  -0.47847  -0.44930  -0.22576
 Alpha virt. eigenvalues --    0.00586   0.00586   0.01779   0.02094   0.02763
 Alpha virt. eigenvalues --    0.02763   0.02993   0.02993   0.03112   0.03658
 Alpha virt. eigenvalues --    0.03658   0.05733   0.07639   0.07639   0.09253

 Mulliken charges and spin densities:
               1          2
     1  Sc   1.200987   0.994465
     2  O   -1.200987   0.005535
 Sum of Mulliken charges =  -0.00000   1.00000

 Dipole moment (field-independent basis, Debye):
    X=              0.0000    Y=              0.0000    Z=              2.7662  Tot=              2.7662
 Quadrupole moment (field-independent basis, Debye-Ang):
   XX=            -22.4811   YY=            -22.4811   ZZ=            -31.5466
   XY=              0.0000   XZ=              0.0000   YZ=              0.0000

 \\#P ROCCSD(T)=(maxcyc=150, Full, SaveAmplitudes, ReadAmplitudes)/Gen
 8175\PMP2-0=-839.3811896\CCSD=-839.3613799\CCSD(T)=-839.3991567\RMSD=3
 Normal termination of Gaussian 16 at Tue Feb 20 22:52:02 2018.
