 Gaussian 16, Revision A.03,
 Gaussian 16:  ES64L-G16RevA.03 25-Dec-2016

 ----------------------------------------------------------------------
 #P ROHF/Gen 5d 7f SCF=(maxcycles=300) Integral(NoXCTest, DKHSO) MaxDis
 k=500GB Pop=Regular
 ----------------------------------------------------------------------

 ---
 ScH
 ---
 Symbolic Z-matrix:
 Charge =  0 Multiplicity = 1

                         Standard orientation:
 ---------------------------------------------------------------------
 Center     Atomic      Atomic             Coordinates (Angstroms)
 Number     Number       Type             X           Y           Z
 ---------------------------------------------------------------------
      1         21           0        0.000000    0.000000    0.072727
      2          1           0        0.000000    0.000000   -1.527273
 ---------------------------------------------------------------------

 SCF Done:  E(ROHF) =  -763.825238835     A.U. after   13 cycles

 The electronic state is 1-SG.
 Alpha  occ. eigenvalues -- -166.89683 -19.35055 -15.77394 -15.77394 -15.76666
 Alpha  occ. eigenvalues --   -2.66553  -1.64638  -1.64177  -1.64177  -0.43060
 Alpha  occ. eigenvalues --   -0.22600
 Alpha virt. eigenvalues --    0.01239   0.01239   0.01692   0.02154   0.03526
 Alpha virt. eigenvalues --    0.03878   0.03878   0.03917   0.03917   0.04668
 Alpha virt. eigenvalues --    0.04668   0.05033   0.09111   0.09111   0.09403

 Mulliken charges and spin densities:
               1          2
     1  Sc   0.395145   0.000000
     2  H   -0.395145   0.000000
 Sum of Mulliken charges =  -0.00000   0.00000

 Dipole moment (field-independent basis, Debye):
    X=              0.0000    Y=              0.0000    Z=              0.8920  Tot=              0.8920
 Quadrupole moment (field-independent basis, Debye-Ang):
   XX=            -23.6567   YY=            -23.6567   ZZ=            -25.8922
   XY=              0.0000   XZ=              0.0000   YZ=              0.0000

 Normal termination of Gaussian 16 at Tue Feb 13 13:26:31 2018.
