 Gaussian 16, Revision A.03,
 Gaussian 16:  ES64L-G16RevA.03 25-Dec-2016

 ----------------------------------------------------------------------
 #P ROCCSD(T)=(maxcyc=150, Full, SaveAmplitudes, ReadAmplitudes)/Gen 5d
  7f SCF=(maxcycles=300) Integral(NoXCTest) MaxDisk=500GB Pop=Regular P
 seudo=Read Guess=Read
 ----------------------------------------------------------------------

 ---
 ScO
 ---
 Symbolic Z-matrix:
 Charge =  0 Multiplicity = 2

                         Standard orientation:
 ---------------------------------------------------------------------
 Center     Atomic      Atomic             Coordinates (Angstroms)
 Number     Number       Type             X           Y           Z
 ---------------------------------------------------------------------
      1         21           0        0.000000    0.000000    0.496552
      2          8           0        0.000000    0.000000   -1.303448
 ---------------------------------------------------------------------

 SCF Done:  E(ROHF) =  -62.0522760631     A.U. after   17 cycles
 E2 =    -0.7132961068D+00 EUMP2 =    -0.62765572169867D+02
 CCSD(T)
 CCSD(T)= -0.62794196237D+02

 The electronic state is 2-SG.
 Alpha  occ. eigenvalues --   -2.72483  -1.67516  -1.66397  -1.66397  -1.11902
 Alpha  occ. eigenvalues --   -0.41479  -0.38497  -0.38497  -0.26556
 Alpha virt. eigenvalues --   -0.00428  -0.00428   0.01043   0.01956   0.02662
 Alpha virt. eigenvalues --    0.02662   0.02783   0.02783   0.03231   0.03231
 Alpha virt. eigenvalues --    0.03609   0.04083   0.06142   0.06142   0.09078

 Mulliken charges and spin densities:
               1          2
     1  Sc   1.259288   0.984164
     2  O   -1.259288   0.015836
 Sum of Mulliken charges =  -0.00000   1.00000

 Dipole moment (field-independent basis, Debye):
    X=              0.0000    Y=              0.0000    Z=              5.8471  Tot=              5.8471
 Quadrupole moment (field-independent basis, Debye-Ang):
   XX=            -21.8437   YY=            -21.8437   ZZ=            -33.1398
   XY=              0.0000   XZ=              0.0000   YZ=              0.0000

 \\#P ROCCSD(T)=(maxcyc=150, Full, SaveAmplitudes, ReadAmplitudes)/Gen
 522761\PMP2-0=-62.7655722\CCSD=-62.7488849\CCSD(T)=-62.7941962\RMSD=1.
 Normal termination of Gaussian 16 at Wed Feb 21 06:35:33 2018.
