 Gaussian 16, Revision A.03,
 Gaussian 16:  ES64L-G16RevA.03 25-Dec-2016

 ----------------------------------------------------------------------
 #P ROCCSD(T)=(maxcyc=150, Full)/Gen 5d 7f SCF=(maxcycles=300) Integral
 (NoXCTest) MaxDisk=500GB Pop=Regular Pseudo=Read IOp(5/15=2) Guess=Rea
 d
 ----------------------------------------------------------------------

 ---
 ScH
 ---
 Symbolic Z-matrix:
 Charge =  0 Multiplicity = 1

                         Standard orientation:
 ---------------------------------------------------------------------
 Center     Atomic      Atomic             Coordinates (Angstroms)
 Number     Number       Type             X           Y           Z
 ---------------------------------------------------------------------
      1         21           0        0.000000    0.000000    0.068182
      2          1           0        0.000000    0.000000   -1.431818
 ---------------------------------------------------------------------

 SCF Done:  E(ROHF) =  -46.7788946573     A.U. after    8 cycles
 E2 =    -0.4347659506D+00 EUMP2 =    -0.47213660607935D+02
 CCSD(T)
 CCSD(T)= -0.47251999781D+02

 The electronic state is 1-SG.
 Alpha  occ. eigenvalues --   -2.69618  -1.64186  -1.63200  -1.63200  -0.44151
 Alpha  occ. eigenvalues --   -0.22358
 Alpha virt. eigenvalues --    0.01250   0.01250   0.01502   0.01665   0.02621
 Alpha virt. eigenvalues --    0.02621   0.02631   0.02631   0.02656   0.04151
 Alpha virt. eigenvalues --    0.04264   0.04264   0.06961   0.07323   0.07323

 Mulliken charges and spin densities:
               1          2
     1  Sc   0.366323   0.000000
     2  H   -0.366323   0.000000
 Sum of Mulliken charges =  -0.00000   0.00000

 Dipole moment (field-independent basis, Debye):
    X=              0.0000    Y=              0.0000    Z=              0.7779  Tot=              0.7779
 Quadrupole moment (field-independent basis, Debye-Ang):
   XX=            -23.1774   YY=            -23.1774   ZZ=            -24.4410
   XY=              0.0000   XZ=              0.0000   YZ=              0.0000

 P ROCCSD(T)=(maxcyc=150, Full)/Gen 5d 7f SCF=(maxcycles=300) Integral(
 MP2-0=-47.2136606\MP4SDQ=-47.2331868\CCSD=-47.2328393\CCSD(T)=-47.2519
 Normal termination of Gaussian 16 at Wed Feb 14 01:40:10 2018.
