 Gaussian 16, Revision A.03,
 Gaussian 16:  ES64L-G16RevA.03 25-Dec-2016

 ----------------------------------------------------------------------
 #P ROCCSD(T)=(maxcyc=150, Full, SaveAmplitudes, ReadAmplitudes)/Gen 5d
  7f SCF=(maxcycles=300) Integral(NoXCTest) MaxDisk=500GB Pop=Regular P
 seudo=Read Guess=Read IOp(5/15=2)
 ----------------------------------------------------------------------

 ---
 TiO
 ---
 Symbolic Z-matrix:
 Charge =  0 Multiplicity = 3

                         Standard orientation:
 ---------------------------------------------------------------------
 Center     Atomic      Atomic             Coordinates (Angstroms)
 Number     Number       Type             X           Y           Z
 ---------------------------------------------------------------------
      1         22           0        0.000000    0.000000    0.426667
      2          8           0        0.000000    0.000000   -1.173333
 ---------------------------------------------------------------------

 SCF Done:  E(ROHF) =  -73.3123309543     A.U. after    2 cycles
 E2 =    -0.7428371664D+00 EUMP2 =    -0.74055168120765D+02
 CCSD(T)
 CCSD(T)= -0.74084425375D+02

 Unable to determine electronic state:  an orbital has unidentified symmetry.
 Alpha  occ. eigenvalues --   -3.00162  -1.91148  -1.91148  -1.90149  -1.16656
 Alpha  occ. eigenvalues --   -0.46822  -0.45249  -0.45249  -0.45205  -0.26220
 Alpha virt. eigenvalues --    0.00388   0.00388   0.01600   0.02559   0.04128
 Alpha virt. eigenvalues --    0.04128   0.04807   0.04951   0.05183   0.05867
 Alpha virt. eigenvalues --    0.05867   0.06819   0.10733   0.11227   0.13815

 Mulliken charges and spin densities:
               1          2
     1  Ti   0.900259   1.998866
     2  O   -0.900259   0.001134
 Sum of Mulliken charges =  -0.00000   2.00000

 Dipole moment (field-independent basis, Debye):
    X=              0.0000    Y=              0.0000    Z=              4.1368  Tot=              4.1368
 Quadrupole moment (field-independent basis, Debye-Ang):
   XX=            -21.5398   YY=            -21.5398   ZZ=            -29.1068
   XY=              0.0000   XZ=              0.0000   YZ=              0.0000

 \\#P ROCCSD(T)=(maxcyc=150, Full, SaveAmplitudes, ReadAmplitudes)/Gen
 02022\CCSD(T)=-74.0844254\RMSD=7.283e-09\PG=C*V [C*(O1Ti1)]\\@
 Normal termination of Gaussian 16 at Fri Mar  9 15:16:44 2018.
