 Gaussian 16, Revision A.03,
 Gaussian 16:  ES64L-G16RevA.03 25-Dec-2016

 ----------------------------------------------------------------------
 #P ROHF/Gen 5d 7f SCF=(maxcycles=300) Integral(NoXCTest) MaxDisk=500GB
  Pop=Regular Pseudo=Read IOp(5/15=2)
 ----------------------------------------------------------------------

 ---
 TiO
 ---
 Symbolic Z-matrix:
 Charge =  0 Multiplicity = 3

                         Standard orientation:
 ---------------------------------------------------------------------
 Center     Atomic      Atomic             Coordinates (Angstroms)
 Number     Number       Type             X           Y           Z
 ---------------------------------------------------------------------
      1         22           0        0.000000    0.000000    0.426667
      2          8           0        0.000000    0.000000   -1.173333
 ---------------------------------------------------------------------

 SCF Done:  E(ROHF) =  -73.3123309543     A.U. after   21 cycles

 Unable to determine electronic state:  an orbital has unidentified symmetry.
 Alpha  occ. eigenvalues --   -2.94967  -1.88283  -1.82968  -1.82968  -1.16350
 Alpha  occ. eigenvalues --   -0.46107  -0.44885  -0.44885  -0.08082  -0.07509
 Alpha virt. eigenvalues --    0.01213   0.01213   0.01826   0.02727   0.04849
 Alpha virt. eigenvalues --    0.04849   0.05033   0.05138   0.05235   0.05980
 Alpha virt. eigenvalues --    0.05980   0.07521   0.11510   0.11643   0.14177

 Mulliken charges and spin densities:
               1          2
     1  Ti   0.900259   1.998866
     2  O   -0.900259   0.001134
 Sum of Mulliken charges =  -0.00000   2.00000

 Dipole moment (field-independent basis, Debye):
    X=              0.0000    Y=              0.0000    Z=              4.1368  Tot=              4.1368
 Quadrupole moment (field-independent basis, Debye-Ang):
   XX=            -21.5398   YY=            -21.5398   ZZ=            -29.1068
   XY=              0.0000   XZ=              0.0000   YZ=              0.0000

 Normal termination of Gaussian 16 at Fri Mar  9 14:52:26 2018.
