 Gaussian 16, Revision A.03,
 Gaussian 16:  ES64L-G16RevA.03 25-Dec-2016

 ----------------------------------------------------------------------
 #P ROCCSD(T)=(maxcyc=150, Full, SaveAmplitudes, ReadAmplitudes)/Gen 5d
  7f SCF=(maxcycles=300, VShift=400) Integral(NoXCTest) MaxDisk=500GB P
 op=Full Pseudo=Read Guess=Read
 ----------------------------------------------------------------------

 ---
 ScH
 ---
 Symbolic Z-matrix:
 Charge =  0 Multiplicity = 1

                         Standard orientation:
 ---------------------------------------------------------------------
 Center     Atomic      Atomic             Coordinates (Angstroms)
 Number     Number       Type             X           Y           Z
 ---------------------------------------------------------------------
      1         21           0        0.000000    0.000000    0.086364
      2          1           0        0.000000    0.000000   -1.813636
 ---------------------------------------------------------------------

 SCF Done:  E(ROHF) =  -46.6736814172     A.U. after   18 cycles
 E2 =    -0.4198532345D+00 EUMP2 =    -0.47093534651703D+02
 CCSD(T)
 CCSD(T)= -0.47138506619D+02

 The electronic state is 1-SG.
 Alpha  occ. eigenvalues --   -2.69418  -1.67884  -1.67884  -1.67741  -0.39236
 Alpha  occ. eigenvalues --   -0.23569
 Alpha virt. eigenvalues --    0.01034   0.01034   0.01363   0.01995   0.02835
 Alpha virt. eigenvalues --    0.02835   0.02935   0.02935   0.02973   0.03976
 Alpha virt. eigenvalues --    0.03976   0.04015   0.06967   0.06967   0.07644

 Mulliken charges and spin densities:
               1          2
     1  Sc   0.264791   0.000000
     2  H   -0.264791   0.000000
 Sum of Mulliken charges =  -0.00000   0.00000

 Dipole moment (field-independent basis, Debye):
    X=              0.0000    Y=              0.0000    Z=              1.8257  Tot=              1.8257
 Quadrupole moment (field-independent basis, Debye-Ang):
   XX=            -22.9959   YY=            -22.9959   ZZ=            -27.5883
   XY=              0.0000   XZ=              0.0000   YZ=              0.0000

 P ROCCSD(T)=(maxcyc=150, Full, SaveAmplitudes, ReadAmplitudes)/Gen 5d
 =-46.6736814\PMP2-0=-47.0935347\CCSD=-47.1188829\CCSD(T)=-47.1385066\R
 Normal termination of Gaussian 16 at Thu Apr 19 08:11:55 2018.
