 Gaussian 16, Revision A.03,
 Gaussian 16:  ES64L-G16RevA.03 25-Dec-2016

 ----------------------------------------------------------------------
 #P ROCCSD(T)=(maxcyc=150, Full)/Gen 5d 7f SCF=(maxcycles=300, NoVarAcc
 , VShift=200) MaxDisk=100GB Pop=Regular Pseudo=Read Guess=Read
 ----------------------------------------------------------------------

 --
 Mn
 --
 Symbolic Z-matrix:
 Charge =  0 Multiplicity = 6

                         Standard orientation:
 ---------------------------------------------------------------------
 Center     Atomic      Atomic             Coordinates (Angstroms)
 Number     Number       Type             X           Y           Z
 ---------------------------------------------------------------------
      1         25           0        0.000000    0.000000    0.000000
 ---------------------------------------------------------------------

 SCF Done:  E(ROHF) =  -103.694490967     A.U. after   20 cycles
 E2 =    -0.6227338197D+00 EUMP2 =    -0.10431722478711D+03
 CCSD(T)
 CCSD(T)= -0.10433676477D+03

 The electronic state is 6-A1G.
 Alpha  occ. eigenvalues --   -4.08836  -2.74996  -2.74996  -2.74996  -0.62669
 Alpha  occ. eigenvalues --   -0.62669  -0.62669  -0.62669  -0.62669  -0.26774
 Alpha virt. eigenvalues --    0.01679   0.01679   0.01679   0.02125   0.05543
 Alpha virt. eigenvalues --    0.05543   0.05543   0.05597   0.05597   0.05597
 Alpha virt. eigenvalues --    0.05597   0.05597   0.10436   0.17431   0.17431

 Mulliken charges and spin densities:
               1          2
     1  Mn   0.000000   5.000000
 Sum of Mulliken charges =   0.00000   5.00000

 Dipole moment (field-independent basis, Debye):
    X=              0.0000    Y=              0.0000    Z=              0.0000  Tot=              0.0000
 Quadrupole moment (field-independent basis, Debye-Ang):
   XX=            -18.7654   YY=            -18.7654   ZZ=            -18.7654
   XY=              0.0000   XZ=             -0.0000   YZ=              0.0000

 1\1\GINC-C402-122\SP\ROCCSD(T)-Full\Gen\Mn1(6)\AANNABE\12-Mar-2018\0\\
 #P ROCCSD(T)=(maxcyc=150, Full)/Gen 5d 7f SCF=(maxcycles=300, NoVarAcc
 , VShift=200) MaxDisk=100GB Pop=Regular Pseudo=Read Guess=Read\\Mn\\0,
 6\Mn,0,0.,0.,0.\\Version=ES64L-G16RevA.03\State=6-A1G\HF=-103.694491\M
 P2=-104.3172248\MP3=-104.3149584\PUHF=-103.694491\PMP2-0=-104.3172248\
 MP4SDQ=-104.3169461\CCSD=-104.3172021\CCSD(T)=-104.3367648\RMSD=5.993e
 -09\PG=OH [O(Mn1)]\\@

 Normal termination of Gaussian 16 at Mon Mar 12 15:01:48 2018.
