 Gaussian 16, Revision A.03,
 Gaussian 16:  ES64L-G16RevA.03 25-Dec-2016

 ----------------------------------------------------------------------
 #P ROCCSD(T)=(MaxCyc=150, Full)/Gen SCF=(maxcycle=400) Pseudo=Read Int
 egral(NoXCTest) Pop=Regular MaxDisk=500GB Guess=Read IOp(5/15=2)
 ----------------------------------------------------------------------

 ---
 ZnO
 ---
 Symbolic Z-matrix:
 Charge =  0 Multiplicity = 1

                         Standard orientation:
 ---------------------------------------------------------------------
 Center     Atomic      Atomic             Coordinates (Angstroms)
 Number     Number       Type             X           Y           Z
 ---------------------------------------------------------------------
      1         30           0        0.000000    0.000000    0.336842
      2          8           0        0.000000    0.000000   -1.263158
 ---------------------------------------------------------------------

 SCF Done:  E(ROHF) =  -241.649989724     A.U. after   11 cycles
 E2 =    -0.1406357487D+01 EUMP2 =    -0.24305634721088D+03
 CCSD(T)
 CCSD(T)= -0.24298921627D+03

 The electronic state is 1-SG.
 Alpha  occ. eigenvalues --   -5.92528  -3.99852  -3.99508  -3.99508  -1.18336
 Alpha  occ. eigenvalues --   -0.83180  -0.83180  -0.82204  -0.82204  -0.79889
 Alpha  occ. eigenvalues --   -0.39672  -0.39672  -0.38378
 Alpha virt. eigenvalues --   -0.04650   0.02456   0.02456   0.02463   0.04205
 Alpha virt. eigenvalues --    0.07939   0.07939   0.12003   0.16528   0.17702
 Alpha virt. eigenvalues --    0.17828   0.17828   0.20576   0.20576   0.23144

 Mulliken charges and spin densities:
               1          2
     1  Zn   1.010546   0.000000
     2  O   -1.010546   0.000000
 Sum of Mulliken charges =  -0.00000   0.00000

 Dipole moment (field-independent basis, Debye):
    X=              0.0000    Y=              0.0000    Z=              7.1490  Tot=              7.1490
 Quadrupole moment (field-independent basis, Debye-Ang):
   XX=            -17.9374   YY=            -17.9374   ZZ=            -21.1948
   XY=              0.0000   XZ=              0.0000   YZ=              0.0000

 P ROCCSD(T)=(MaxCyc=150, Full)/Gen SCF=(maxcycle=400) Pseudo=Read Inte
 2-0=-243.0563472\MP4SDQ=-242.9847995\CCSD=-242.9379728\CCSD(T)=-242.98
 Normal termination of Gaussian 16 at Wed Mar 28 02:36:50 2018.
