 Gaussian 16, Revision A.03,
 Gaussian 16:  ES64L-G16RevA.03 25-Dec-2016

 ----------------------------------------------------------------------
 #P ROCCSD(T)=(MaxCyc=150, Full)/Gen SCF=(maxcycle=400) Pseudo=Read Int
 egral(NoXCTest) Pop=Regular MaxDisk=500GB Guess=Read IOp(5/15=2)
 ----------------------------------------------------------------------

 ---
 ZnO
 ---
 Symbolic Z-matrix:
 Charge =  0 Multiplicity = 1

                         Standard orientation:
 ---------------------------------------------------------------------
 Center     Atomic      Atomic             Coordinates (Angstroms)
 Number     Number       Type             X           Y           Z
 ---------------------------------------------------------------------
      1         30           0        0.000000    0.000000    0.336842
      2          8           0        0.000000    0.000000   -1.263158
 ---------------------------------------------------------------------

 SCF Done:  E(ROHF) =  -241.646430427     A.U. after    1 cycles
 E2 =    -0.1338293583D+01 EUMP2 =    -0.24298472400943D+03
 CCSD(T)
 CCSD(T)= -0.24292008495D+03

 The electronic state is 1-SG.
 Alpha  occ. eigenvalues --   -5.92543  -3.99880  -3.99527  -3.99527  -1.18394
 Alpha  occ. eigenvalues --   -0.83194  -0.83194  -0.82213  -0.82213  -0.79910
 Alpha  occ. eigenvalues --   -0.39661  -0.39661  -0.38396
 Alpha virt. eigenvalues --   -0.04662   0.02691   0.02712   0.02712   0.04683
 Alpha virt. eigenvalues --    0.09128   0.09128   0.13378   0.17702   0.22057
 Alpha virt. eigenvalues --    0.23739   0.23739   0.24732   0.24732   0.30081

 Mulliken charges and spin densities:
               1          2
     1  Zn   1.125913   0.000000
     2  O   -1.125913   0.000000
 Sum of Mulliken charges =   0.00000   0.00000

 Dipole moment (field-independent basis, Debye):
    X=              0.0000    Y=              0.0000    Z=              7.1623  Tot=              7.1623
 Quadrupole moment (field-independent basis, Debye-Ang):
   XX=            -17.9508   YY=            -17.9508   ZZ=            -21.1970
   XY=              0.0000   XZ=              0.0000   YZ=              0.0000

 P ROCCSD(T)=(MaxCyc=150, Full)/Gen SCF=(maxcycle=400) Pseudo=Read Inte
 -0=-242.984724\MP4SDQ=-242.9192144\CCSD=-242.8714113\CCSD(T)=-242.9200
 Normal termination of Gaussian 16 at Wed Mar 28 00:19:36 2018.
