 Gaussian 16, Revision A.03,
 Gaussian 16:  ES64L-G16RevA.03 25-Dec-2016

 ----------------------------------------------------------------------
 #P ROCCSD(T)=(maxcyc=100, Full)/Gen SCF=(maxcycle=400, symm) Pseudo=Re
 ad Integral(NoXCTest) Pop=Regular MaxDisk=500GB Guess=Permute IOp(5/15
 =2)
 ----------------------------------------------------------------------

 ---
 FeH
 ---
 Symbolic Z-matrix:
 Charge =  0 Multiplicity = 4

                         Standard orientation:
 ---------------------------------------------------------------------
 Center     Atomic      Atomic             Coordinates (Angstroms)
 Number     Number       Type             X           Y           Z
 ---------------------------------------------------------------------
      1         26           0        0.000000    0.000000    0.048148
      2          1           0        0.000000    0.000000   -1.251852
 ---------------------------------------------------------------------

 SCF Done:  E(ROHF) =  -123.480866100     A.U. after   26 cycles
 E2 =    -0.7702138874D+00 EUMP2 =    -0.12425107998751D+03
 CCSD(T)
 CCSD(T)= -0.12424825590D+03

 Unable to determine electronic state:  an orbital has unidentified symmetry.
 Alpha  occ. eigenvalues --   -4.41659  -2.84538  -2.82861  -2.82861  -0.53763
 Alpha  occ. eigenvalues --   -0.53763  -0.51788  -0.51586  -0.46864  -0.30907
 Alpha virt. eigenvalues --    0.00239   0.02470   0.02470   0.02947   0.04609
 Alpha virt. eigenvalues --    0.08335   0.08335   0.09596   0.10304   0.10304
 Alpha virt. eigenvalues --    0.10322   0.10358   0.10546   0.16729   0.24838

 Mulliken charges and spin densities:
               1          2
     1  Fe   0.368432   2.993104
     2  H   -0.368432   0.006896
 Sum of Mulliken charges =  -0.00000   3.00000

 Dipole moment (field-independent basis, Debye):
    X=              0.0000    Y=              0.0000    Z=              3.4116  Tot=              3.4116
 Quadrupole moment (field-independent basis, Debye-Ang):
   XX=            -16.4183   YY=            -16.4183   ZZ=            -16.1022
   XY=              0.0000   XZ=              0.0000   YZ=              0.0000

 \\#P ROCCSD(T)=(maxcyc=100, Full)/Gen SCF=(maxcycle=400, symm) Pseudo=
 784\CCSD(T)=-124.2482559\RMSD=3.639e-09\PG=C*V [C*(H1Fe1)]\\@
 Normal termination of Gaussian 16 at Mon Feb 12 20:23:02 2018.
