 Gaussian 16, Revision A.03,
 Gaussian 16:  ES64L-G16RevA.03 25-Dec-2016

 ----------------------------------------------------------------------
 #P ROCCSD(T)=(maxcyc=100, Full)/Gen SCF=(maxcycle=400, symm) Pseudo=Re
 ad Integral(NoXCTest) Pop=Regular MaxDisk=500GB Guess=Permute IOp(5/15
 =2)
 ----------------------------------------------------------------------

 ---
 FeH
 ---
 Symbolic Z-matrix:
 Charge =  0 Multiplicity = 4

                         Standard orientation:
 ---------------------------------------------------------------------
 Center     Atomic      Atomic             Coordinates (Angstroms)
 Number     Number       Type             X           Y           Z
 ---------------------------------------------------------------------
      1         26           0        0.000000    0.000000    0.048148
      2          1           0        0.000000    0.000000   -1.251852
 ---------------------------------------------------------------------

 SCF Done:  E(ROHF) =  -123.476903279     A.U. after   32 cycles
 E2 =    -0.8054901892D+00 EUMP2 =    -0.12428239346812D+03
 CCSD(T)
 CCSD(T)= -0.12427763752D+03

 Unable to determine electronic state:  partially filled degenerate orbitals.
 Alpha  occ. eigenvalues --   -4.41499  -2.84559  -2.82884  -2.82884  -0.53759
 Alpha  occ. eigenvalues --   -0.53759  -0.51787  -0.51592  -0.46865  -0.30905
 Alpha virt. eigenvalues --    0.00208   0.02254   0.02254   0.02689   0.04420
 Alpha virt. eigenvalues --    0.06247   0.06821   0.06821   0.06848   0.06860
 Alpha virt. eigenvalues --    0.07571   0.07571   0.09397   0.17120   0.17977

 Mulliken charges and spin densities:
               1          2
     1  Fe   0.393739   2.994418
     2  H   -0.393739   0.005582
 Sum of Mulliken charges =  -0.00000   3.00000

 Dipole moment (field-independent basis, Debye):
    X=              0.0000    Y=              0.0000    Z=              3.4116  Tot=              3.4116
 Quadrupole moment (field-independent basis, Debye-Ang):
   XX=            -16.4081   YY=            -16.4081   ZZ=            -16.1104
   XY=              0.0000   XZ=              0.0000   YZ=              0.0000

 \\#P ROCCSD(T)=(maxcyc=100, Full)/Gen SCF=(maxcycle=400, symm) Pseudo=
 2471961\CCSD(T)=-124.2776375\RMSD=4.170e-09\PG=C*V [C*(H1Fe1)]\\@
 Normal termination of Gaussian 16 at Mon Feb 12 20:59:48 2018.
