 Gaussian 16, Revision A.03,
 Gaussian 16:  ES64L-G16RevA.03 25-Dec-2016

 ----------------------------------------------------------------------
 #P ROCCSD(T)=(maxcyc=100, Full)/Gen SCF=(maxcycle=400, symm) Pseudo=Re
 ad Integral(NoXCTest) Pop=Regular MaxDisk=500GB Guess=Permute IOp(5/15
 =2)
 ----------------------------------------------------------------------

 ---
 FeH
 ---
 Symbolic Z-matrix:
 Charge =  0 Multiplicity = 4

                         Standard orientation:
 ---------------------------------------------------------------------
 Center     Atomic      Atomic             Coordinates (Angstroms)
 Number     Number       Type             X           Y           Z
 ---------------------------------------------------------------------
      1         26           0        0.000000    0.000000    0.048148
      2          1           0        0.000000    0.000000   -1.251852
 ---------------------------------------------------------------------

 SCF Done:  E(ROHF) =  -123.482200328     A.U. after   26 cycles
 E2 =    -0.8196085554D+00 EUMP2 =    -0.12430180888355D+03
 CCSD(T)
 CCSD(T)= -0.12429507236D+03

 Unable to determine electronic state:  an orbital has unidentified symmetry.
 Alpha  occ. eigenvalues --   -4.41605  -2.84516  -2.82842  -2.82842  -0.53760
 Alpha  occ. eigenvalues --   -0.53760  -0.51787  -0.51594  -0.46870  -0.30908
 Alpha virt. eigenvalues --    0.00161   0.02190   0.02190   0.02406   0.03798
 Alpha virt. eigenvalues --    0.05873   0.06272   0.06281   0.06286   0.06286
 Alpha virt. eigenvalues --    0.07240   0.07240   0.08243   0.13003   0.17294

 Mulliken charges and spin densities:
               1          2
     1  Fe   0.331271   2.991684
     2  H   -0.331271   0.008316
 Sum of Mulliken charges =  -0.00000   3.00000

 Dipole moment (field-independent basis, Debye):
    X=              0.0000    Y=              0.0000    Z=              3.4105  Tot=              3.4105
 Quadrupole moment (field-independent basis, Debye-Ang):
   XX=            -16.4050   YY=            -16.4050   ZZ=            -16.1090
   XY=              0.0000   XZ=              0.0000   YZ=              0.0000

 \\#P ROCCSD(T)=(maxcyc=100, Full)/Gen SCF=(maxcycle=400, symm) Pseudo=
 2641623\CCSD(T)=-124.2950724\RMSD=8.844e-09\PG=C*V [C*(H1Fe1)]\\@
 Normal termination of Gaussian 16 at Mon Feb 12 22:36:54 2018.
