 Gaussian 16, Revision A.03,
 Gaussian 16:  ES64L-G16RevA.03 25-Dec-2016

 ----------------------------------------------------------------------
 #P ROCCSD(T)=(maxcyc=150, Full, SaveAmplitudes, ReadAmplitudes)/Gen 5d
  7f SCF=(maxcycles=300) Integral(NoXCTest) MaxDisk=500GB Pop=Regular P
 seudo=Read Guess=Read
 ----------------------------------------------------------------------

 ---
 CrH
 ---
 Symbolic Z-matrix:
 Charge =  0 Multiplicity = 6

                         Standard orientation:
 ---------------------------------------------------------------------
 Center     Atomic      Atomic             Coordinates (Angstroms)
 Number     Number       Type             X           Y           Z
 ---------------------------------------------------------------------
      1         24           0        0.000000    0.000000    0.056000
      2          1           0        0.000000    0.000000   -1.344000
 ---------------------------------------------------------------------

 SCF Done:  E(ROHF) =  -86.3490452166     A.U. after   26 cycles
 E2 =    -0.5670687355D+00 EUMP2 =    -0.86916113952102D+02
 CCSD(T)
 CCSD(T)= -0.86948581066D+02

 The electronic state is 6-SG.
 Alpha  occ. eigenvalues --   -3.81121  -2.53019  -2.53019  -2.49577  -0.46145
 Alpha  occ. eigenvalues --   -0.46145  -0.44995  -0.43521  -0.43521  -0.26276
 Alpha virt. eigenvalues --    0.01437   0.01437   0.02006   0.02218   0.04647
 Alpha virt. eigenvalues --    0.05175   0.05175   0.05435   0.05435   0.05641
 Alpha virt. eigenvalues --    0.05641   0.06571   0.09450   0.12603   0.16994

 Mulliken charges and spin densities:
               1          2
     1  Cr   0.420078   4.987021
     2  H   -0.420078   0.012979
 Sum of Mulliken charges =   0.00000   5.00000

 Dipole moment (field-independent basis, Debye):
    X=              0.0000    Y=              0.0000    Z=              1.5996  Tot=              1.5996
 Quadrupole moment (field-independent basis, Debye-Ang):
   XX=            -17.0625   YY=            -17.0625   ZZ=            -21.3595
   XY=              0.0000   XZ=              0.0000   YZ=              0.0000

 \\#P ROCCSD(T)=(maxcyc=150, Full, SaveAmplitudes, ReadAmplitudes)/Gen
 90452\PMP2-0=-86.916114\CCSD=-86.9296512\CCSD(T)=-86.9485811\RMSD=6.63
 Normal termination of Gaussian 16 at Mon Feb 26 03:35:30 2018.
