 Gaussian 16, Revision A.03,
 Gaussian 16:  ES64L-G16RevA.03 25-Dec-2016

 ----------------------------------------------------------------------
 #P ROCCSD(T)=(maxcyc=150, Full)/Gen 5d 7f SCF=(maxcycles=300) Integral
 (NoXCTest) MaxDisk=500GB Pop=Regular Pseudo=Read IOp(5/15=2) Guess=Rea
 d
 ----------------------------------------------------------------------

 ---
 ScH
 ---
 Symbolic Z-matrix:
 Charge =  0 Multiplicity = 1

                         Standard orientation:
 ---------------------------------------------------------------------
 Center     Atomic      Atomic             Coordinates (Angstroms)
 Number     Number       Type             X           Y           Z
 ---------------------------------------------------------------------
      1         21           0        0.000000    0.000000    0.054545
      2          1           0        0.000000    0.000000   -1.145455
 ---------------------------------------------------------------------

 SCF Done:  E(ROHF) =  -46.4817962896     A.U. after   11 cycles
 E2 =    -0.4321770953D+00 EUMP2 =    -0.46913973384915D+02
 CCSD(T)
 CCSD(T)= -0.46951036774D+02

 The electronic state is 1-SG.
 Alpha  occ. eigenvalues --   -2.62249  -1.63700  -1.59031  -1.59031  -0.46911
 Alpha  occ. eigenvalues --   -0.21453
 Alpha virt. eigenvalues --    0.01325   0.01325   0.01382   0.01989   0.02884
 Alpha virt. eigenvalues --    0.02884   0.02899   0.02905   0.02905   0.04328
 Alpha virt. eigenvalues --    0.04478   0.04478   0.08061   0.08244   0.08244

 Mulliken charges and spin densities:
               1          2
     1  Sc   0.248257   0.000000
     2  H   -0.248257   0.000000
 Sum of Mulliken charges =  -0.00000   0.00000

 Dipole moment (field-independent basis, Debye):
    X=              0.0000    Y=              0.0000    Z=              0.7866  Tot=              0.7866
 Quadrupole moment (field-independent basis, Debye-Ang):
   XX=            -23.6954   YY=            -23.6954   ZZ=            -22.5555
   XY=              0.0000   XZ=              0.0000   YZ=              0.0000

 P ROCCSD(T)=(maxcyc=150, Full)/Gen 5d 7f SCF=(maxcycles=300) Integral(
 PMP2-0=-46.9139734\MP4SDQ=-46.9331213\CCSD=-46.9326686\CCSD(T)=-46.951
 Normal termination of Gaussian 16 at Tue Feb 13 19:02:51 2018.
