 Gaussian 16, Revision A.03,
 Gaussian 16:  ES64L-G16RevA.03 25-Dec-2016

 ----------------------------------------------------------------------
 #P ROCCSD(T)=(maxcyc=150, Full, SaveAmplitudes, ReadAmplitudes)/Gen 5d
  7f SCF=(maxcycles=300) Integral(NoXCTest) MaxDisk=500GB Pop=Regular P
 seudo=Read Guess=Read
 ----------------------------------------------------------------------

 ---
 CrH
 ---
 Symbolic Z-matrix:
 Charge =  0 Multiplicity = 6

                         Standard orientation:
 ---------------------------------------------------------------------
 Center     Atomic      Atomic             Coordinates (Angstroms)
 Number     Number       Type             X           Y           Z
 ---------------------------------------------------------------------
      1         24           0        0.000000    0.000000    0.068000
      2          1           0        0.000000    0.000000   -1.632000
 ---------------------------------------------------------------------

 SCF Done:  E(ROHF) =  -86.8822217908     A.U. after   23 cycles
 E2 =    -0.5614769559D+00 EUMP2 =    -0.87443698746760D+02
 CCSD(T)
 CCSD(T)= -0.87490283944D+02

 The electronic state is 6-SG.
 Alpha  occ. eigenvalues --   -3.74738  -2.44667  -2.44667  -2.40009  -0.54906
 Alpha  occ. eigenvalues --   -0.54906  -0.51635  -0.51635  -0.40706  -0.26087
 Alpha virt. eigenvalues --    0.01273   0.01273   0.01968   0.02382   0.04624
 Alpha virt. eigenvalues --    0.05055   0.05055   0.05341   0.05341   0.05665
 Alpha virt. eigenvalues --    0.05665   0.06808   0.09561   0.12464   0.16781

 Mulliken charges and spin densities:
               1          2
     1  Cr   0.322543   4.979643
     2  H   -0.322543   0.020357
 Sum of Mulliken charges =  -0.00000   5.00000

 Dipole moment (field-independent basis, Debye):
    X=              0.0000    Y=              0.0000    Z=              2.2020  Tot=              2.2020
 Quadrupole moment (field-independent basis, Debye-Ang):
   XX=            -16.9244   YY=            -16.9244   ZZ=            -24.0710
   XY=              0.0000   XZ=              0.0000   YZ=              0.0000

 \\#P ROCCSD(T)=(maxcyc=150, Full, SaveAmplitudes, ReadAmplitudes)/Gen
 822218\PMP2-0=-87.4436987\CCSD=-87.4725149\CCSD(T)=-87.4902839\RMSD=2.
 Normal termination of Gaussian 16 at Mon Feb 26 11:08:32 2018.
