 Gaussian 16, Revision A.03,
 Gaussian 16:  ES64L-G16RevA.03 25-Dec-2016

 ----------------------------------------------------------------------
 #P ROCCSD(T)=(maxcyc=150, Full, SaveAmplitudes, ReadAmplitudes)/Gen 5d
  7f SCF=(maxcycles=300, VShift=200) Integral(NoXCTest) MaxDisk=500GB P
 op=Regular Pseudo=Read Guess=Read IOp(5/15=2)
 ----------------------------------------------------------------------

 ---
 CrO
 ---
 Symbolic Z-matrix:
 Charge =  0 Multiplicity = 5

                         Standard orientation:
 ---------------------------------------------------------------------
 Center     Atomic      Atomic             Coordinates (Angstroms)
 Number     Number       Type             X           Y           Z
 ---------------------------------------------------------------------
      1         24           0        0.000000    0.000000    0.400000
      2          8           0        0.000000    0.000000   -1.200000
 ---------------------------------------------------------------------

 SCF Done:  E(ROHF) =  -101.792778363     A.U. after   26 cycles
 E2 =    -0.8762911708D+00 EUMP2 =    -0.10266906953387D+03
 CCSD(T)
 CCSD(T)= -0.10269614985D+03

 Unable to determine electronic state:  an orbital has unidentified symmetry.
 Alpha  occ. eigenvalues --   -3.77052  -2.52778  -2.48841  -2.45575  -1.17883
 Alpha  occ. eigenvalues --   -0.61673  -0.58207  -0.56959  -0.48068  -0.43170
 Alpha  occ. eigenvalues --   -0.38617  -0.31784
 Alpha virt. eigenvalues --   -0.00201   0.00576   0.01691   0.03179   0.03889
 Alpha virt. eigenvalues --    0.04498   0.06090   0.07573   0.07588   0.08061
 Alpha virt. eigenvalues --    0.08074   0.08466   0.13150   0.13465   0.15872

 Mulliken charges and spin densities:
               1          2
     1  Cr   1.075567   3.858426
     2  O   -1.075567   0.141574
 Sum of Mulliken charges =  -0.00000   4.00000

 Dipole moment (field-independent basis, Debye):
    X=              0.0000    Y=              0.0000    Z=              6.1289  Tot=              6.1289
 Quadrupole moment (field-independent basis, Debye-Ang):
   XX=            -20.6794   YY=            -19.5872   ZZ=            -23.9873
   XY=              0.0000   XZ=              0.0000   YZ=              0.0000

 \\#P ROCCSD(T)=(maxcyc=150, Full, SaveAmplitudes, ReadAmplitudes)/Gen
 2.6781883\CCSD=-102.6461973\CCSD(T)=-102.6961499\RMSD=9.661e-09\PG=C*V
 Normal termination of Gaussian 16 at Thu Mar 15 16:14:15 2018.
