 Gaussian 16, Revision A.03,
 Gaussian 16:  ES64L-G16RevA.03 25-Dec-2016

 ----------------------------------------------------------------------
 #P ROCCSD(T)=(MaxCyc=150, Full)/Gen SCF=(maxcycle=400) Pseudo=Read Int
 egral(NoXCTest) Pop=Regular MaxDisk=500GB Guess=Read IOp(5/15=2)
 ----------------------------------------------------------------------

 ---
 CoO
 ---
 Symbolic Z-matrix:
 Charge =  0 Multiplicity = 4

                         Standard orientation:
 ---------------------------------------------------------------------
 Center     Atomic      Atomic             Coordinates (Angstroms)
 Number     Number       Type             X           Y           Z
 ---------------------------------------------------------------------
      1         27           0        0.000000    0.000000    0.342857
      2          8           0        0.000000    0.000000   -1.157143
 ---------------------------------------------------------------------

 SCF Done:  E(ROHF) =  -160.594688478     A.U. after   26 cycles
 E2 =    -0.1109307371D+01 EUMP2 =    -0.16170399584910D+03
 CCSD(T)
 CCSD(T)= -0.16172365263D+03

 Unable to determine electronic state:  partially filled degenerate orbitals.
 Alpha  occ. eigenvalues --   -4.70394  -3.22893  -3.21856  -3.21856  -1.19118
 Alpha  occ. eigenvalues --   -0.77104  -0.77104  -0.74716  -0.69529  -0.66676
 Alpha  occ. eigenvalues --   -0.40334  -0.40334  -0.36546
 Alpha virt. eigenvalues --   -0.03806   0.02377   0.02377   0.02620   0.04117
 Alpha virt. eigenvalues --    0.08220   0.08220   0.09986   0.10981   0.11009
 Alpha virt. eigenvalues --    0.11792   0.11792   0.14871   0.15755   0.26187

 Mulliken charges and spin densities:
               1          2
     1  Co   1.043183   2.859751
     2  O   -1.043183   0.140249
 Sum of Mulliken charges =  -0.00000   3.00000

 Dipole moment (field-independent basis, Debye):
    X=              0.0000    Y=              0.0000    Z=              6.9811  Tot=              6.9811
 Quadrupole moment (field-independent basis, Debye-Ang):
   XX=            -18.8530   YY=            -18.8530   ZZ=            -20.5964
   XY=              0.0000   XZ=              0.0000   YZ=              0.0000

 \\#P ROCCSD(T)=(MaxCyc=150, Full)/Gen SCF=(maxcycle=400) Pseudo=Read I
 .7039958\MP4SDQ=-161.6818114\CCSD=-161.66948\CCSD(T)=-161.7236526\RMSD
 Normal termination of Gaussian 16 at Sat Mar 31 14:41:19 2018.
