 Gaussian 16, Revision A.03,
 Gaussian 16:  ES64L-G16RevA.03 25-Dec-2016

 ----------------------------------------------------------------------
 #P ROCCSD(T)=(MaxCyc=150, Full)/Gen SCF=(maxcycle=400) Pseudo=Read Int
 egral(NoXCTest) Pop=Regular MaxDisk=500GB Guess=Read IOp(5/15=2)
 ----------------------------------------------------------------------

 ---
 CoO
 ---
 Symbolic Z-matrix:
 Charge =  0 Multiplicity = 4

                         Standard orientation:
 ---------------------------------------------------------------------
 Center     Atomic      Atomic             Coordinates (Angstroms)
 Number     Number       Type             X           Y           Z
 ---------------------------------------------------------------------
      1         27           0        0.000000    0.000000    0.342857
      2          8           0        0.000000    0.000000   -1.157143
 ---------------------------------------------------------------------

 SCF Done:  E(ROHF) =  -160.597825105     A.U. after   20 cycles
 E2 =    -0.1161253759D+01 EUMP2 =    -0.16175907886466D+03
 CCSD(T)
 CCSD(T)= -0.16177598431D+03

 Unable to determine electronic state:  partially filled degenerate orbitals.
 Alpha  occ. eigenvalues --   -4.70343  -3.22860  -3.21827  -3.21827  -1.19073
 Alpha  occ. eigenvalues --   -0.77105  -0.77105  -0.74716  -0.69530  -0.66671
 Alpha  occ. eigenvalues --   -0.40340  -0.40340  -0.36531
 Alpha virt. eigenvalues --   -0.03802   0.02060   0.02060   0.02359   0.03720
 Alpha virt. eigenvalues --    0.06910   0.06910   0.07073   0.07204   0.07212
 Alpha virt. eigenvalues --    0.08708   0.08708   0.12827   0.14667   0.21315

 Mulliken charges and spin densities:
               1          2
     1  Co   0.996489   2.861547
     2  O   -0.996489   0.138453
 Sum of Mulliken charges =  -0.00000   3.00000

 Dipole moment (field-independent basis, Debye):
    X=              0.0000    Y=              0.0000    Z=              6.9709  Tot=              6.9709
 Quadrupole moment (field-independent basis, Debye-Ang):
   XX=            -18.8512   YY=            -18.8512   ZZ=            -20.5778
   XY=              0.0000   XZ=              0.0000   YZ=              0.0000

 \\#P ROCCSD(T)=(MaxCyc=150, Full)/Gen SCF=(maxcycle=400) Pseudo=Read I
 .7590789\MP4SDQ=-161.7311107\CCSD=-161.7194841\CCSD(T)=-161.7759843\RM
 Normal termination of Gaussian 16 at Sat Mar 31 16:58:33 2018.
