 Gaussian 16, Revision A.03,
 Gaussian 16:  ES64L-G16RevA.03 25-Dec-2016

 ----------------------------------------------------------------------
 #P ROCCSD(T)=(MaxCyc=150, Full)/Gen SCF=(maxcycle=400) Pseudo=Read Int
 egral(NoXCTest) Pop=Regular MaxDisk=500GB Guess=Read IOp(5/15=2)
 ----------------------------------------------------------------------

 ---
 CuO
 ---
 Symbolic Z-matrix:
 Charge =  0 Multiplicity = 2

                         Standard orientation:
 ---------------------------------------------------------------------
 Center     Atomic      Atomic             Coordinates (Angstroms)
 Number     Number       Type             X           Y           Z
 ---------------------------------------------------------------------
      1         29           0        0.000000    0.000000    0.367568
      2          8           0        0.000000    0.000000   -1.332432
 ---------------------------------------------------------------------

 SCF Done:  E(ROHF) =  -211.686030710     A.U. after   17 cycles
 E2 =    -0.1296513366D+01 EUMP2 =    -0.21298254407648D+03
 CCSD(T)
 CCSD(T)= -0.21291449011D+03

 Unable to determine electronic state:  an orbital has unidentified symmetry.
 Alpha  occ. eigenvalues --   -5.27203  -3.39371  -3.38929  -3.38640  -1.24251
 Alpha  occ. eigenvalues --   -0.58365  -0.55226  -0.54740  -0.52236  -0.52234
 Alpha  occ. eigenvalues --   -0.47819  -0.41838  -0.40156
 Alpha virt. eigenvalues --   -0.01153   0.02869   0.03030   0.04007   0.04695
 Alpha virt. eigenvalues --    0.10416   0.10764   0.13651   0.19423   0.19577
 Alpha virt. eigenvalues --    0.19606   0.20848   0.21625   0.22691   0.26054

 Mulliken charges and spin densities:
               1          2
     1  Cu   0.823578   0.020656
     2  O   -0.823578   0.979344
 Sum of Mulliken charges =  -0.00000   1.00000

 Dipole moment (field-independent basis, Debye):
    X=              0.0000    Y=              0.0000    Z=              5.6388  Tot=              5.6388
 Quadrupole moment (field-independent basis, Debye-Ang):
   XX=            -15.6499   YY=            -17.2042   ZZ=            -20.1858
   XY=              0.0000   XZ=              0.0000   YZ=              0.0000

 \\#P ROCCSD(T)=(MaxCyc=150, Full)/Gen SCF=(maxcycle=400) Pseudo=Read I
 .9825441\MP4SDQ=-212.9468081\CCSD=-212.8680255\CCSD(T)=-212.9144901\RM
 Normal termination of Gaussian 16 at Mon Mar 26 10:29:54 2018.
