 Gaussian 16, Revision A.03,
 Gaussian 16:  ES64L-G16RevA.03 25-Dec-2016

 ----------------------------------------------------------------------
 #P ROCCSD(T)=(MaxCyc=150, Full)/Gen SCF=(maxcycle=400) Pseudo=Read Int
 egral(NoXCTest) Pop=Regular MaxDisk=500GB Guess=Read IOp(5/15=2)
 ----------------------------------------------------------------------

 ---
 CuO
 ---
 Symbolic Z-matrix:
 Charge =  0 Multiplicity = 2

                         Standard orientation:
 ---------------------------------------------------------------------
 Center     Atomic      Atomic             Coordinates (Angstroms)
 Number     Number       Type             X           Y           Z
 ---------------------------------------------------------------------
      1         29           0        0.000000    0.000000    0.367568
      2          8           0        0.000000    0.000000   -1.332432
 ---------------------------------------------------------------------

 SCF Done:  E(ROHF) =  -211.690528399     A.U. after   20 cycles
 E2 =    -0.1360619874D+01 EUMP2 =    -0.21305114827301D+03
 CCSD(T)
 CCSD(T)= -0.21298015010D+03

 Unable to determine electronic state:  an orbital has unidentified symmetry.
 Alpha  occ. eigenvalues --   -5.27181  -3.39337  -3.38901  -3.38615  -1.24203
 Alpha  occ. eigenvalues --   -0.58368  -0.55227  -0.54724  -0.52236  -0.52235
 Alpha  occ. eigenvalues --   -0.47818  -0.41839  -0.40145
 Alpha virt. eigenvalues --   -0.01155   0.02555   0.02686   0.03540   0.04468
 Alpha virt. eigenvalues --    0.08922   0.09190   0.11741   0.13401   0.13409
 Alpha virt. eigenvalues --    0.14441   0.14511   0.14972   0.19042   0.21401

 Mulliken charges and spin densities:
               1          2
     1  Cu   0.748136   0.021323
     2  O   -0.748136   0.978677
 Sum of Mulliken charges =  -0.00000   1.00000

 Dipole moment (field-independent basis, Debye):
    X=              0.0000    Y=              0.0000    Z=              5.6241  Tot=              5.6241
 Quadrupole moment (field-independent basis, Debye-Ang):
   XX=            -15.6407   YY=            -17.1778   ZZ=            -20.1988
   XY=              0.0000   XZ=              0.0000   YZ=              0.0000

 \\#P ROCCSD(T)=(MaxCyc=150, Full)/Gen SCF=(maxcycle=400) Pseudo=Read I
 .0511483\MP4SDQ=-213.0092337\CCSD=-212.9311319\CCSD(T)=-212.9801501\RM
 Normal termination of Gaussian 16 at Mon Mar 26 13:04:54 2018.
