 Gaussian 16, Revision A.03,
 Gaussian 16:  ES64L-G16RevA.03 25-Dec-2016

 ----------------------------------------------------------------------
 #P ROCCSD(T)=(maxcyc=150, Full)/Gen 5d 7f SCF=(maxcycles=300) Integral
 (NoXCTest) MaxDisk=500GB Pop=Regular Pseudo=Read Guess=Read
 ----------------------------------------------------------------------

 ---
 ScH
 ---
 Symbolic Z-matrix:
 Charge =  0 Multiplicity = 1

                         Standard orientation:
 ---------------------------------------------------------------------
 Center     Atomic      Atomic             Coordinates (Angstroms)
 Number     Number       Type             X           Y           Z
 ---------------------------------------------------------------------
      1         21           0        0.000000    0.000000    0.077273
      2          1           0        0.000000    0.000000   -1.622727
 ---------------------------------------------------------------------

 SCF Done:  E(ROHF) =  -46.6609078745     A.U. after   10 cycles
 E2 =    -0.4231920148D+00 EUMP2 =    -0.47084099889303D+02
 CCSD(T)
 CCSD(T)= -0.47126895048D+02

 The electronic state is 1-SG.
 Alpha  occ. eigenvalues --   -2.67843  -1.65773  -1.65606  -1.65606  -0.41734
 Alpha  occ. eigenvalues --   -0.22902
 Alpha virt. eigenvalues --    0.01150   0.01150   0.01515   0.01929   0.02859
 Alpha virt. eigenvalues --    0.02859   0.02918   0.02918   0.02938   0.04143
 Alpha virt. eigenvalues --    0.04143   0.04304   0.07478   0.07478   0.07907

 Mulliken charges and spin densities:
               1          2
     1  Sc   0.270932   0.000000
     2  H   -0.270932   0.000000
 Sum of Mulliken charges =  -0.00000   0.00000

 Dipole moment (field-independent basis, Debye):
    X=              0.0000    Y=              0.0000    Z=              1.2197  Tot=              1.2197
 Quadrupole moment (field-independent basis, Debye-Ang):
   XX=            -23.1246   YY=            -23.1246   ZZ=            -26.0287
   XY=              0.0000   XZ=              0.0000   YZ=              0.0000

 P ROCCSD(T)=(maxcyc=150, Full)/Gen 5d 7f SCF=(maxcycles=300) Integral(
 840999\MP4SDQ=-47.1078767\CCSD=-47.1076961\CCSD(T)=-47.126895\RMSD=9.0
 Normal termination of Gaussian 16 at Tue Feb 13 03:07:22 2018.
