 Gaussian 16, Revision A.03,
 Gaussian 16:  ES64L-G16RevA.03 25-Dec-2016

 ----------------------------------------------------------------------
 #P ROCCSD(T)=(maxcyc=150, Full, SaveAmplitudes, ReadAmplitudes)/Gen 5d
  7f SCF=(maxcycles=300, VShift=400) Integral(NoXCTest) MaxDisk=500GB P
 op=Full Pseudo=Read Guess=Read IOp(5/15=2)
 ----------------------------------------------------------------------

 ---
 ScH
 ---
 Symbolic Z-matrix:
 Charge =  0 Multiplicity = 1

                         Standard orientation:
 ---------------------------------------------------------------------
 Center     Atomic      Atomic             Coordinates (Angstroms)
 Number     Number       Type             X           Y           Z
 ---------------------------------------------------------------------
      1         21           0        0.000000    0.000000    0.063636
      2          1           0        0.000000    0.000000   -1.336364
 ---------------------------------------------------------------------

 SCF Done:  E(ROHF) =  -46.6364874398     A.U. after   27 cycles
 E2 =    -0.4138619726D+00 EUMP2 =    -0.47050349412355D+02
 CCSD(T)
 CCSD(T)= -0.47091789239D+02

 The electronic state is 1-SG.
 Alpha  occ. eigenvalues --   -2.63735  -1.64121  -1.62377  -1.62377  -0.45286
 Alpha  occ. eigenvalues --   -0.21928
 Alpha virt. eigenvalues --    0.01314   0.01314   0.01606   0.02178   0.03494
 Alpha virt. eigenvalues --    0.03913   0.03913   0.03918   0.03918   0.04805
 Alpha virt. eigenvalues --    0.04805   0.04995   0.09283   0.09898   0.09898

 Mulliken charges and spin densities:
               1          2
     1  Sc   0.453530   0.000000
     2  H   -0.453530   0.000000
 Sum of Mulliken charges =  -0.00000   0.00000

 Dipole moment (field-independent basis, Debye):
    X=              0.0000    Y=              0.0000    Z=              0.6757  Tot=              0.6757
 Quadrupole moment (field-independent basis, Debye-Ang):
   XX=            -23.4963   YY=            -23.4963   ZZ=            -23.8721
   XY=              0.0000   XZ=              0.0000   YZ=              0.0000

 P ROCCSD(T)=(maxcyc=150, Full, SaveAmplitudes, ReadAmplitudes)/Gen 5d
 .0746354\CCSD=-47.0740479\CCSD(T)=-47.0917892\RMSD=9.181e-09\PG=C*V [C
 Normal termination of Gaussian 16 at Thu Apr 19 07:42:59 2018.
