 Gaussian 16, Revision A.03,
 Gaussian 16:  ES64L-G16RevA.03 25-Dec-2016

 ----------------------------------------------------------------------
 #P ROCCSD(T)=(maxcyc=150, Full)/Gen 5d 7f SCF=(maxcycles=300) MaxDisk=
 500GB Pop=Regular Pseudo=Read Guess=Read
 ----------------------------------------------------------------------

 --
 Sc
 --
 Symbolic Z-matrix:
 Charge =  0 Multiplicity = 2

                         Standard orientation:
 ---------------------------------------------------------------------
 Center     Atomic      Atomic             Coordinates (Angstroms)
 Number     Number       Type             X           Y           Z
 ---------------------------------------------------------------------
      1         21           0        0.000000    0.000000    0.000000
 ---------------------------------------------------------------------

 SCF Done:  E(ROHF) =  -46.0577585563     A.U. after   17 cycles
 E2 =    -0.3918825246D+00 EUMP2 =    -0.46449641080915D+02
 CCSD(T)
 CCSD(T)= -0.46482597794D+02

 Unable to determine electronic state:  an orbital has unidentified symmetry.
 Alpha  occ. eigenvalues --   -2.63388  -1.63186  -1.63186  -1.59350  -0.34486
 Alpha  occ. eigenvalues --   -0.21544
 Alpha virt. eigenvalues --    0.01181   0.01271   0.01271   0.02001   0.02626
 Alpha virt. eigenvalues --    0.02628   0.02628   0.02635   0.02650   0.04269
 Alpha virt. eigenvalues --    0.04389   0.04389   0.07398   0.07479   0.07479

 Mulliken charges and spin densities:
               1          2
     1  Sc  -0.000000   1.000000
 Sum of Mulliken charges =  -0.00000   1.00000

 Dipole moment (field-independent basis, Debye):
    X=              0.0000    Y=              0.0000    Z=              0.0000  Tot=              0.0000
 Quadrupole moment (field-independent basis, Debye-Ang):
   XX=            -23.3922   YY=            -23.3922   ZZ=            -23.0960
   XY=             -0.0000   XZ=              0.0000   YZ=             -0.0000

 1\1\GINC-C506-012\SP\ROCCSD(T)-Full\Gen\Sc1(2)\AANNABE\16-Feb-2018\0\\
 #P ROCCSD(T)=(maxcyc=150, Full)/Gen 5d 7f SCF=(maxcycles=300) MaxDisk=
 500GB Pop=Regular Pseudo=Read Guess=Read\\Sc\\0,2\Sc,0,0.,0.,0.\\Versi
 on=ES64L-G16RevA.03\HF=-46.0577586\MP2=-46.4496411\MP3=-46.4671762\PUH
 F=-46.0577586\PMP2-0=-46.4496411\MP4SDQ=-46.4665341\CCSD=-46.466794\CC
 SD(T)=-46.4825978\RMSD=3.918e-09\PG=OH [O(Sc1)]\\@

 Normal termination of Gaussian 16 at Fri Feb 16 11:39:59 2018.
