 Gaussian 16, Revision A.03,
 Gaussian 16:  ES64L-G16RevA.03 25-Dec-2016

 ----------------------------------------------------------------------
 #P ROCCSD(T)=(maxcyc=150, Full, SaveAmplitudes, ReadAmplitudes)/Gen 5d
  7f SCF=(maxcycles=300) Integral(NoXCTest) MaxDisk=500GB Pop=Regular P
 seudo=Read Guess=Read IOp(5/15=2)
 ----------------------------------------------------------------------

 ---
 MnO
 ---
 Symbolic Z-matrix:
 Charge =  0 Multiplicity = 6

                         Standard orientation:
 ---------------------------------------------------------------------
 Center     Atomic      Atomic             Coordinates (Angstroms)
 Number     Number       Type             X           Y           Z
 ---------------------------------------------------------------------
      1         25           0        0.000000    0.000000    0.290909
      2          8           0        0.000000    0.000000   -0.909091
 ---------------------------------------------------------------------

 SCF Done:  E(ROHF) =  -118.877501414     A.U. after   29 cycles
 E2 =    -0.9347749659D+00 EUMP2 =    -0.11981227637963D+03
 CCSD(T)
 CCSD(T)= -0.11981394833D+03

 The electronic state is 6-SG.
 Alpha  occ. eigenvalues --   -4.13991  -2.80403  -2.76458  -2.76458  -1.30024
 Alpha  occ. eigenvalues --   -0.78598  -0.78598  -0.66118  -0.59720  -0.59720
 Alpha  occ. eigenvalues --   -0.38278  -0.38278  -0.28933
 Alpha virt. eigenvalues --    0.02314   0.02656   0.02656   0.02965   0.07253
 Alpha virt. eigenvalues --    0.08165   0.08165   0.08828   0.08828   0.09481
 Alpha virt. eigenvalues --    0.09481   0.10870   0.11703   0.17351   0.25333

 Mulliken charges and spin densities:
               1          2
     1  Mn   0.621552   4.712348
     2  O   -0.621552   0.287652
 Sum of Mulliken charges =  -0.00000   5.00000

 Dipole moment (field-independent basis, Debye):
    X=              0.0000    Y=              0.0000    Z=              1.2923  Tot=              1.2923
 Quadrupole moment (field-independent basis, Debye-Ang):
   XX=            -20.1950   YY=            -20.1950   ZZ=            -22.3288
   XY=              0.0000   XZ=              0.0000   YZ=              0.0000

 \\#P ROCCSD(T)=(maxcyc=150, Full, SaveAmplitudes, ReadAmplitudes)/Gen
 .7883864\CCSD=-119.7764701\CCSD(T)=-119.8139483\RMSD=3.989e-09\PG=C*V
 Normal termination of Gaussian 16 at Fri Mar  9 17:29:49 2018.
