 Gaussian 16, Revision A.03,
 Gaussian 16:  ES64L-G16RevA.03 25-Dec-2016

 ----------------------------------------------------------------------
 #P ROCCSD(T)=(maxcyc=150, Full, SaveAmplitudes, ReadAmplitudes)/Gen 5d
  7f SCF=(maxcycles=300) Integral(NoXCTest) MaxDisk=500GB Pop=Regular P
 seudo=Read Guess=Read
 ----------------------------------------------------------------------

 ---
 TiO
 ---
 Symbolic Z-matrix:
 Charge =  0 Multiplicity = 3

                         Standard orientation:
 ---------------------------------------------------------------------
 Center     Atomic      Atomic             Coordinates (Angstroms)
 Number     Number       Type             X           Y           Z
 ---------------------------------------------------------------------
      1         22           0        0.000000    0.000000    0.400000
      2          8           0        0.000000    0.000000   -1.100000
 ---------------------------------------------------------------------

 SCF Done:  E(ROHF) =  -73.4088524577     A.U. after   19 cycles
 E2 =    -0.7734867843D+00 EUMP2 =    -0.74182339241985D+02
 CCSD(T)
 CCSD(T)= -0.74206948833D+02

 Unable to determine electronic state:  an orbital has unidentified symmetry.
 Alpha  occ. eigenvalues --   -2.98814  -1.90163  -1.88047  -1.88047  -1.17026
 Alpha  occ. eigenvalues --   -0.48959  -0.48959  -0.48528  -0.42426  -0.24836
 Alpha virt. eigenvalues --    0.00694   0.00694   0.01750   0.02355   0.03740
 Alpha virt. eigenvalues --    0.03801   0.03856   0.03856   0.04080   0.04188
 Alpha virt. eigenvalues --    0.04188   0.06067   0.09778   0.10462   0.11519

 Mulliken charges and spin densities:
               1          2
     1  Ti   0.993309   1.968426
     2  O   -0.993309   0.031574
 Sum of Mulliken charges =  -0.00000   2.00000

 Dipole moment (field-independent basis, Debye):
    X=              0.0000    Y=              0.0000    Z=              3.0779  Tot=              3.0779
 Quadrupole moment (field-independent basis, Debye-Ang):
   XX=            -21.5298   YY=            -21.5298   ZZ=            -28.4210
   XY=              0.0000   XZ=              0.0000   YZ=              0.0000

 \\#P ROCCSD(T)=(maxcyc=150, Full, SaveAmplitudes, ReadAmplitudes)/Gen
 -0=-74.1823392\CCSD=-74.1642545\CCSD(T)=-74.2069488\RMSD=4.050e-09\PG=
 Normal termination of Gaussian 16 at Sat Mar 10 01:44:53 2018.
