 Gaussian 16, Revision A.03,
 Gaussian 16:  ES64L-G16RevA.03 25-Dec-2016

 ----------------------------------------------------------------------
 #P ROCCSD(T)=(maxcyc=150, Full, SaveAmplitudes, ReadAmplitudes)/Gen 5d
  7f SCF=(maxcycles=300) Integral(NoXCTest) MaxDisk=500GB Pop=Regular P
 seudo=Read Guess=Read IOp(5/15=2)
 ----------------------------------------------------------------------

 ---
 TiO
 ---
 Symbolic Z-matrix:
 Charge =  0 Multiplicity = 3

                         Standard orientation:
 ---------------------------------------------------------------------
 Center     Atomic      Atomic             Coordinates (Angstroms)
 Number     Number       Type             X           Y           Z
 ---------------------------------------------------------------------
      1         22           0        0.000000    0.000000    0.373333
      2          8           0        0.000000    0.000000   -1.026667
 ---------------------------------------------------------------------

 SCF Done:  E(ROHF) =  -73.3475836921     A.U. after   23 cycles
 E2 =    -0.7381604279D+00 EUMP2 =    -0.74085744119954D+02
 CCSD(T)
 CCSD(T)= -0.74111036038D+02

 Unable to determine electronic state:  an orbital has unidentified symmetry.
 Alpha  occ. eigenvalues --   -2.95857  -1.92178  -1.85200  -1.85200  -1.16488
 Alpha  occ. eigenvalues --   -0.53628  -0.53628  -0.50461  -0.39159  -0.23261
 Alpha virt. eigenvalues --    0.01002   0.01002   0.02206   0.02528   0.04631
 Alpha virt. eigenvalues --    0.04631   0.04994   0.05110   0.05281   0.05818
 Alpha virt. eigenvalues --    0.05818   0.08105   0.11548   0.12902   0.14373

 Mulliken charges and spin densities:
               1          2
     1  Ti   0.788471   2.024114
     2  O   -0.788471  -0.024114
 Sum of Mulliken charges =  -0.00000   2.00000

 Dipole moment (field-independent basis, Debye):
    X=              0.0000    Y=              0.0000    Z=              1.8962  Tot=              1.8962
 Quadrupole moment (field-independent basis, Debye-Ang):
   XX=            -21.7088   YY=            -21.7088   ZZ=            -27.7831
   XY=              0.0000   XZ=              0.0000   YZ=              0.0000

 \\#P ROCCSD(T)=(maxcyc=150, Full, SaveAmplitudes, ReadAmplitudes)/Gen
 0733194\CCSD(T)=-74.111036\RMSD=3.520e-09\PG=C*V [C*(O1Ti1)]\\@
 Normal termination of Gaussian 16 at Fri Mar  9 15:41:11 2018.
