 Gaussian 16, Revision A.03,
 Gaussian 16:  ES64L-G16RevA.03 25-Dec-2016

 ----------------------------------------------------------------------
 #P ROCCSD(T)=(maxcyc=100, Full)/Gen SCF=(maxcycle=400, symm) Pseudo=Re
 ad Integral(NoXCTest) Pop=Regular MaxDisk=500GB Guess=Permute IOp(5/15
 =2)
 ----------------------------------------------------------------------

 ---
 FeH
 ---
 Symbolic Z-matrix:
 Charge =  0 Multiplicity = 4

                         Standard orientation:
 ---------------------------------------------------------------------
 Center     Atomic      Atomic             Coordinates (Angstroms)
 Number     Number       Type             X           Y           Z
 ---------------------------------------------------------------------
      1         26           0        0.000000    0.000000    0.059259
      2          1           0        0.000000    0.000000   -1.540741
 ---------------------------------------------------------------------

 SCF Done:  E(ROHF) =  -123.588056081     A.U. after   66 cycles
 E2 =    -0.8143910440D+00 EUMP2 =    -0.12440244712547D+03
 CCSD(T)
 CCSD(T)= -0.12440017312D+03

 Unable to determine electronic state:  an orbital has unidentified symmetry.
 Alpha  occ. eigenvalues --   -4.29095  -2.77193  -2.76597  -2.76597  -0.50084
 Alpha  occ. eigenvalues --   -0.50084  -0.49357  -0.44745  -0.44392  -0.31978
 Alpha virt. eigenvalues --   -0.00446   0.02143   0.02143   0.02615   0.03395
 Alpha virt. eigenvalues --    0.05778   0.06208   0.06219   0.06346   0.06346
 Alpha virt. eigenvalues --    0.07430   0.07430   0.08629   0.12967   0.16599

 Mulliken charges and spin densities:
               1          2
     1  Fe   0.277143   2.995735
     2  H   -0.277143   0.004265
 Sum of Mulliken charges =  -0.00000   3.00000

 Dipole moment (field-independent basis, Debye):
    X=              0.0000    Y=              0.0000    Z=              4.3913  Tot=              4.3913
 Quadrupole moment (field-independent basis, Debye-Ang):
   XX=            -15.5186   YY=            -15.5186   ZZ=            -17.4314
   XY=              0.0000   XZ=              0.0000   YZ=              0.0000

 \\#P ROCCSD(T)=(maxcyc=100, Full)/Gen SCF=(maxcycle=400, symm) Pseudo=
 3703098\CCSD(T)=-124.4001731\RMSD=2.704e-09\PG=C*V [C*(H1Fe1)]\\@
 Normal termination of Gaussian 16 at Tue Feb 13 00:11:36 2018.
