 Gaussian 16, Revision A.03,
 Gaussian 16:  ES64L-G16RevA.03 25-Dec-2016

 ----------------------------------------------------------------------
 #P ROCCSD(T)=(maxcyc=100, Full)/Gen SCF=(maxcycle=400, symm) Pseudo=Re
 ad Integral(NoXCTest) Pop=Regular MaxDisk=500GB Guess=Permute IOp(5/15
 =2)
 ----------------------------------------------------------------------

 ---
 FeH
 ---
 Symbolic Z-matrix:
 Charge =  0 Multiplicity = 4

                         Standard orientation:
 ---------------------------------------------------------------------
 Center     Atomic      Atomic             Coordinates (Angstroms)
 Number     Number       Type             X           Y           Z
 ---------------------------------------------------------------------
      1         26           0        0.000000    0.000000    0.059259
      2          1           0        0.000000    0.000000   -1.540741
 ---------------------------------------------------------------------

 SCF Done:  E(ROHF) =  -123.587876608     A.U. after   31 cycles
 E2 =    -0.8001719641D+00 EUMP2 =    -0.12438804857227D+03
 CCSD(T)
 CCSD(T)= -0.12438783539D+03

 Unable to determine electronic state:  partially filled degenerate orbitals.
 Alpha  occ. eigenvalues --   -4.29097  -2.77197  -2.76601  -2.76601  -0.50088
 Alpha  occ. eigenvalues --   -0.50088  -0.49361  -0.44742  -0.44390  -0.31978
 Alpha virt. eigenvalues --   -0.00418   0.02210   0.02210   0.02934   0.03931
 Alpha virt. eigenvalues --    0.06231   0.06778   0.06791   0.06866   0.06866
 Alpha virt. eigenvalues --    0.07785   0.07785   0.09866   0.16381   0.17898

 Mulliken charges and spin densities:
               1          2
     1  Fe   0.312484   2.996453
     2  H   -0.312484   0.003547
 Sum of Mulliken charges =  -0.00000   3.00000

 Dipole moment (field-independent basis, Debye):
    X=              0.0000    Y=              0.0000    Z=              4.3916  Tot=              4.3916
 Quadrupole moment (field-independent basis, Debye-Ang):
   XX=            -15.5209   YY=            -15.5209   ZZ=            -17.4286
   XY=              0.0000   XZ=              0.0000   YZ=              0.0000

 \\#P ROCCSD(T)=(maxcyc=100, Full)/Gen SCF=(maxcycle=400, symm) Pseudo=
 85872\CCSD(T)=-124.3878354\RMSD=5.827e-09\PG=C*V [C*(H1Fe1)]\\@
 Normal termination of Gaussian 16 at Mon Feb 12 22:19:45 2018.
