 Gaussian 16, Revision A.03,
 Gaussian 16:  ES64L-G16RevA.03 25-Dec-2016

 ----------------------------------------------------------------------
 #P ROCCSD(T)=(maxcyc=100, Full)/Gen SCF=(maxcycle=400, symm) Pseudo=Re
 ad Integral(NoXCTest) Pop=Regular MaxDisk=500GB Guess=Permute IOp(5/15
 =2)
 ----------------------------------------------------------------------

 ---
 FeH
 ---
 Symbolic Z-matrix:
 Charge =  0 Multiplicity = 4

                         Standard orientation:
 ---------------------------------------------------------------------
 Center     Atomic      Atomic             Coordinates (Angstroms)
 Number     Number       Type             X           Y           Z
 ---------------------------------------------------------------------
      1         26           0        0.000000    0.000000    0.059259
      2          1           0        0.000000    0.000000   -1.540741
 ---------------------------------------------------------------------

 SCF Done:  E(ROHF) =  -123.586734095     A.U. after   44 cycles
 E2 =    -0.7646059448D+00 EUMP2 =    -0.12435134004022D+03
 CCSD(T)
 CCSD(T)= -0.12435325542D+03

 Unable to determine electronic state:  an orbital has unidentified symmetry.
 Alpha  occ. eigenvalues --   -4.29097  -2.77206  -2.76608  -2.76608  -0.50086
 Alpha  occ. eigenvalues --   -0.50086  -0.49359  -0.44737  -0.44387  -0.31975
 Alpha virt. eigenvalues --   -0.00400   0.02448   0.02448   0.03212   0.04199
 Alpha virt. eigenvalues --    0.08502   0.08502   0.09571   0.10219   0.10258
 Alpha virt. eigenvalues --    0.10408   0.10408   0.10767   0.17155   0.23716

 Mulliken charges and spin densities:
               1          2
     1  Fe   0.422482   2.997772
     2  H   -0.422482   0.002228
 Sum of Mulliken charges =  -0.00000   3.00000

 Dipole moment (field-independent basis, Debye):
    X=              0.0000    Y=              0.0000    Z=              4.3969  Tot=              4.3969
 Quadrupole moment (field-independent basis, Debye-Ang):
   XX=            -15.5329   YY=            -15.5329   ZZ=            -17.4197
   XY=              0.0000   XZ=              0.0000   YZ=              0.0000

 \\#P ROCCSD(T)=(maxcyc=100, Full)/Gen SCF=(maxcycle=400, symm) Pseudo=
 409\CCSD(T)=-124.3532554\RMSD=3.977e-09\PG=C*V [C*(H1Fe1)]\\@
 Normal termination of Gaussian 16 at Mon Feb 12 21:40:02 2018.
