 Gaussian 16, Revision A.03,
 Gaussian 16:  ES64L-G16RevA.03 25-Dec-2016

 ----------------------------------------------------------------------
 #P ROCCSD(T)=(maxcyc=150, Full)/Gen 5d 7f SCF=(maxcycles=300) Integral
 (NoXCTest) MaxDisk=500GB Pop=Regular Pseudo=Read IOp(5/15=2) Guess=Rea
 d
 ----------------------------------------------------------------------

 ---
 ScH
 ---
 Symbolic Z-matrix:
 Charge =  0 Multiplicity = 1

                         Standard orientation:
 ---------------------------------------------------------------------
 Center     Atomic      Atomic             Coordinates (Angstroms)
 Number     Number       Type             X           Y           Z
 ---------------------------------------------------------------------
      1         21           0        0.000000    0.000000    0.063636
      2          1           0        0.000000    0.000000   -1.336364
 ---------------------------------------------------------------------

 SCF Done:  E(ROHF) =  -46.7586120562     A.U. after    8 cycles
 E2 =    -0.4371987081D+00 EUMP2 =    -0.47195810764250D+02
 CCSD(T)
 CCSD(T)= -0.47233035119D+02

 The electronic state is 1-SG.
 Alpha  occ. eigenvalues --   -2.68231  -1.63587  -1.61830  -1.61830  -0.45227
 Alpha  occ. eigenvalues --   -0.22052
 Alpha virt. eigenvalues --    0.01283   0.01283   0.01466   0.01673   0.02622
 Alpha virt. eigenvalues --    0.02622   0.02629   0.02629   0.02645   0.04149
 Alpha virt. eigenvalues --    0.04328   0.04328   0.06983   0.07425   0.07425

 Mulliken charges and spin densities:
               1          2
     1  Sc   0.353307   0.000000
     2  H   -0.353307   0.000000
 Sum of Mulliken charges =  -0.00000   0.00000

 Dipole moment (field-independent basis, Debye):
    X=              0.0000    Y=              0.0000    Z=              0.6672  Tot=              0.6672
 Quadrupole moment (field-independent basis, Debye-Ang):
   XX=            -23.2983   YY=            -23.2983   ZZ=            -23.7016
   XY=              0.0000   XZ=              0.0000   YZ=              0.0000

 P ROCCSD(T)=(maxcyc=150, Full)/Gen 5d 7f SCF=(maxcycles=300) Integral(
 MP2-0=-47.1958108\MP4SDQ=-47.2144252\CCSD=-47.213997\CCSD(T)=-47.23303
 Normal termination of Gaussian 16 at Tue Feb 13 23:59:17 2018.
