 Gaussian 16, Revision A.03,
 Gaussian 16:  ES64L-G16RevA.03 25-Dec-2016

 ----------------------------------------------------------------------
 #P ROCCSD(T)=(maxcyc=150, Full, SaveAmplitudes, ReadAmplitudes)/Gen 5d
  7f SCF=(maxcycles=300) Integral(NoXCTest) MaxDisk=500GB Pop=Regular P
 seudo=Read Guess=Read IOp(5/15=2)
 ----------------------------------------------------------------------

 ---
 TiO
 ---
 Symbolic Z-matrix:
 Charge =  0 Multiplicity = 3

                         Standard orientation:
 ---------------------------------------------------------------------
 Center     Atomic      Atomic             Coordinates (Angstroms)
 Number     Number       Type             X           Y           Z
 ---------------------------------------------------------------------
      1         22           0        0.000000    0.000000    0.480000
      2          8           0        0.000000    0.000000   -1.320000
 ---------------------------------------------------------------------

 SCF Done:  E(ROHF) =  -73.2802488058     A.U. after   21 cycles
 E2 =    -0.7502802299D+00 EUMP2 =    -0.74030529035702D+02
 CCSD(T)
 CCSD(T)= -0.74065137826D+02

 Unable to determine electronic state:  an orbital has unidentified symmetry.
 Alpha  occ. eigenvalues --   -3.05226  -1.96177  -1.96177  -1.92123  -1.14038
 Alpha  occ. eigenvalues --   -0.50389  -0.43343  -0.39581  -0.39581  -0.28671
 Alpha virt. eigenvalues --   -0.00473  -0.00473   0.00749   0.02238   0.03579
 Alpha virt. eigenvalues --    0.03579   0.04103   0.04675   0.05080   0.05921
 Alpha virt. eigenvalues --    0.05921   0.06157   0.08425   0.10833   0.11766

 Mulliken charges and spin densities:
               1          2
     1  Ti   0.946002   1.986972
     2  O   -0.946002   0.013028
 Sum of Mulliken charges =  -0.00000   2.00000

 Dipole moment (field-independent basis, Debye):
    X=              0.0000    Y=              0.0000    Z=              6.0714  Tot=              6.0714
 Quadrupole moment (field-independent basis, Debye-Ang):
   XX=            -21.6550   YY=            -21.6550   ZZ=            -30.3001
   XY=              0.0000   XZ=              0.0000   YZ=              0.0000

 \\#P ROCCSD(T)=(maxcyc=150, Full, SaveAmplitudes, ReadAmplitudes)/Gen
 128769\CCSD(T)=-74.0651378\RMSD=4.043e-09\PG=C*V [C*(O1Ti1)]\\@
 Normal termination of Gaussian 16 at Fri Mar  9 15:18:37 2018.
