 Gaussian 16, Revision A.03,
 Gaussian 16:  ES64L-G16RevA.03 25-Dec-2016

 ----------------------------------------------------------------------
 #P ROCCSD(T)=(MaxCyc=150, Full)/Gen SCF=(maxcycle=400) Integral(DKHSO,
  NoXCTest) Pop=Regular MaxDisk=500GB Guess=Read IOp(5/15=2)
 ----------------------------------------------------------------------

 ---
 ZnO
 ---
 Symbolic Z-matrix:
 Charge =  0 Multiplicity = 1

                         Standard orientation:
 ---------------------------------------------------------------------
 Center     Atomic      Atomic             Coordinates (Angstroms)
 Number     Number       Type             X           Y           Z
 ---------------------------------------------------------------------
      1         30           0        0.000000    0.000000    0.315789
      2          8           0        0.000000    0.000000   -1.184211
 ---------------------------------------------------------------------

 SCF Done:  E(ROHF) =  -1869.04731990     A.U. after   11 cycles
 E2 =    -0.1925457441D+01 EUMP2 =    -0.18709727773446D+04
 CCSD(T)
 CCSD(T)= -0.18708789432D+04

 The electronic state is 1-SG.
 Alpha  occ. eigenvalues -- -357.61596 -45.38909 -39.19181 -39.19181 -39.18921
 Alpha  occ. eigenvalues --  -20.49115  -5.86091  -3.94543  -3.93637  -3.93637
 Alpha  occ. eigenvalues --   -1.19194  -0.83910  -0.83910  -0.82095  -0.82095
 Alpha  occ. eigenvalues --   -0.79232  -0.39876  -0.39876  -0.39286
 Alpha virt. eigenvalues --   -0.04268   0.02567   0.02567   0.02606   0.04192
 Alpha virt. eigenvalues --    0.08279   0.08279   0.12182   0.16628   0.17861
 Alpha virt. eigenvalues --    0.17955   0.17955   0.20477   0.20477   0.23109

 Mulliken charges and spin densities:
               1          2
     1  Zn   1.055303   0.000000
     2  O   -1.055303   0.000000
 Sum of Mulliken charges =  -0.00000   0.00000

 Dipole moment (field-independent basis, Debye):
    X=              0.0000    Y=              0.0000    Z=              6.9987  Tot=              6.9987
 Quadrupole moment (field-independent basis, Debye-Ang):
   XX=            -18.1466   YY=            -18.1466   ZZ=            -20.9799
   XY=              0.0000   XZ=              0.0000   YZ=              0.0000

 P ROCCSD(T)=(MaxCyc=150, Full)/Gen SCF=(maxcycle=400) Integral(DKHSO,
 -0=-1870.9727773\MP4SDQ=-1870.8807041\CCSD=-1870.8254972\CCSD(T)=-1870
 Normal termination of Gaussian 16 at Sat Mar 17 05:50:34 2018.
