 Gaussian 16, Revision A.03,
 Gaussian 16:  ES64L-G16RevA.03 25-Dec-2016

 ----------------------------------------------------------------------
 #P ROCCSD(T)=(MaxCyc=150, Full)/Gen SCF=(maxcycle=400, vshift=200) Pse
 udo=Read Integral(NoXCTest) Pop=Regular MaxDisk=500GB Guess=Read
 ----------------------------------------------------------------------

 ---
 NiO
 ---
 Symbolic Z-matrix:
 Charge =  0 Multiplicity = 3

                         Standard orientation:
 ---------------------------------------------------------------------
 Center     Atomic      Atomic             Coordinates (Angstroms)
 Number     Number       Type             X           Y           Z
 ---------------------------------------------------------------------
      1         28           0        0.000000    0.000000    0.311111
      2          8           0        0.000000    0.000000   -1.088889
 ---------------------------------------------------------------------

 SCF Done:  E(ROHF) =  -184.061997383     A.U. after   20 cycles
 E2 =    -0.1272923170D+01 EUMP2 =    -0.18533492055376D+03
 CCSD(T)
 CCSD(T)= -0.18532837326D+03

 The electronic state is 3-SG.
 Alpha  occ. eigenvalues --   -5.18621  -3.49418  -3.39660  -3.39660  -1.24669
 Alpha  occ. eigenvalues --   -0.80028  -0.80028  -0.70845  -0.68344  -0.68344
 Alpha  occ. eigenvalues --   -0.41907  -0.41907  -0.37286
 Alpha virt. eigenvalues --   -0.03013   0.02273   0.02273   0.02734   0.03778
 Alpha virt. eigenvalues --    0.07382   0.07382   0.07698   0.08199   0.08199
 Alpha virt. eigenvalues --    0.09580   0.09580   0.12921   0.15680   0.22604

 Mulliken charges and spin densities:
               1          2
     1  Ni   0.893845   1.769219
     2  O   -0.893845   0.230781
 Sum of Mulliken charges =  -0.00000   2.00000

 Dipole moment (field-independent basis, Debye):
    X=              0.0000    Y=              0.0000    Z=              6.3582  Tot=              6.3582
 Quadrupole moment (field-independent basis, Debye-Ang):
   XX=            -18.3108   YY=            -18.3108   ZZ=            -19.4592
   XY=              0.0000   XZ=              0.0000   YZ=              0.0000

 \\#P ROCCSD(T)=(MaxCyc=150, Full)/Gen SCF=(maxcycle=400, vshift=200) P
 PMP2-0=-185.3349206\MP4SDQ=-185.3011558\CCSD=-185.2708727\CCSD(T)=-185
 Normal termination of Gaussian 16 at Fri May  4 14:04:06 2018.
