 Gaussian 16, Revision A.03,
 Gaussian 16:  ES64L-G16RevA.03 25-Dec-2016

 ----------------------------------------------------------------------
 #P ROCCSD(T)=(MaxCyc=150, Full)/Gen SCF=(maxcycle=400, vshift=200) Pse
 udo=Read Integral(NoXCTest) Pop=Regular MaxDisk=500GB Guess=Read
 ----------------------------------------------------------------------

 ---
 NiO
 ---
 Symbolic Z-matrix:
 Charge =  0 Multiplicity = 3

                         Standard orientation:
 ---------------------------------------------------------------------
 Center     Atomic      Atomic             Coordinates (Angstroms)
 Number     Number       Type             X           Y           Z
 ---------------------------------------------------------------------
      1         28           0        0.000000    0.000000    0.311111
      2          8           0        0.000000    0.000000   -1.088889
 ---------------------------------------------------------------------

 SCF Done:  E(ROHF) =  -184.048007727     A.U. after   21 cycles
 E2 =    -0.1276976729D+01 EUMP2 =    -0.18532498445577D+03
 CCSD(T)
 CCSD(T)= -0.18531621346D+03

 The electronic state is 3-SG.
 Alpha  occ. eigenvalues --   -5.16142  -3.51017  -3.41296  -3.41296  -1.24691
 Alpha  occ. eigenvalues --   -0.80003  -0.80003  -0.70804  -0.68349  -0.68349
 Alpha  occ. eigenvalues --   -0.41923  -0.41923  -0.37273
 Alpha virt. eigenvalues --   -0.02996   0.02274   0.02274   0.02740   0.03777
 Alpha virt. eigenvalues --    0.07383   0.07383   0.07699   0.08199   0.08199
 Alpha virt. eigenvalues --    0.09580   0.09580   0.12919   0.15689   0.22602

 Mulliken charges and spin densities:
               1          2
     1  Ni   0.892431   1.768979
     2  O   -0.892431   0.231021
 Sum of Mulliken charges =  -0.00000   2.00000

 Dipole moment (field-independent basis, Debye):
    X=              0.0000    Y=              0.0000    Z=              6.3487  Tot=              6.3487
 Quadrupole moment (field-independent basis, Debye-Ang):
   XX=            -18.3242   YY=            -18.3242   ZZ=            -19.4695
   XY=              0.0000   XZ=              0.0000   YZ=              0.0000

 \\#P ROCCSD(T)=(MaxCyc=150, Full)/Gen SCF=(maxcycle=400, vshift=200) P
 PMP2-0=-185.3249845\MP4SDQ=-185.2904041\CCSD=-185.2585972\CCSD(T)=-185
 Normal termination of Gaussian 16 at Fri Aug 17 12:21:41 2018.
