 Gaussian 16, Revision A.03,
 Gaussian 16:  ES64L-G16RevA.03 25-Dec-2016

 ----------------------------------------------------------------------
 #P ROCCSD(T)=(MaxCyc=150, Full)/Gen SCF=(maxcycle=400, vshift=200) Pse
 udo=Read Integral(NoXCTest) Pop=Regular MaxDisk=500GB Guess=Read
 ----------------------------------------------------------------------

 ---
 NiO
 ---
 Symbolic Z-matrix:
 Charge =  0 Multiplicity = 3

                         Standard orientation:
 ---------------------------------------------------------------------
 Center     Atomic      Atomic             Coordinates (Angstroms)
 Number     Number       Type             X           Y           Z
 ---------------------------------------------------------------------
      1         28           0        0.000000    0.000000    0.311111
      2          8           0        0.000000    0.000000   -1.088889
 ---------------------------------------------------------------------

 SCF Done:  E(ROHF) =  -184.044326871     A.U. after   28 cycles
 E2 =    -0.1219130545D+01 EUMP2 =    -0.18526345741675D+03
 CCSD(T)
 CCSD(T)= -0.18525709242D+03

 The electronic state is 3-SG.
 Alpha  occ. eigenvalues --   -5.16152  -3.51045  -3.41314  -3.41314  -1.24741
 Alpha  occ. eigenvalues --   -0.80006  -0.80006  -0.70813  -0.68350  -0.68350
 Alpha  occ. eigenvalues --   -0.41920  -0.41920  -0.37283
 Alpha virt. eigenvalues --   -0.03001   0.02649   0.02649   0.03059   0.04147
 Alpha virt. eigenvalues --    0.09045   0.09045   0.11101   0.12543   0.12543
 Alpha virt. eigenvalues --    0.13195   0.13195   0.15248   0.17100   0.26315

 Mulliken charges and spin densities:
               1          2
     1  Ni   1.080760   1.763083
     2  O   -1.080760   0.236917
 Sum of Mulliken charges =  -0.00000   2.00000

 Dipole moment (field-independent basis, Debye):
    X=              0.0000    Y=              0.0000    Z=              6.3620  Tot=              6.3620
 Quadrupole moment (field-independent basis, Debye-Ang):
   XX=            -18.3304   YY=            -18.3304   ZZ=            -19.4832
   XY=              0.0000   XZ=              0.0000   YZ=              0.0000

 \\#P ROCCSD(T)=(MaxCyc=150, Full)/Gen SCF=(maxcycle=400, vshift=200) P
 PMP2-0=-185.2634574\MP4SDQ=-185.2346947\CCSD=-185.2021127\CCSD(T)=-185
 Normal termination of Gaussian 16 at Fri Aug 17 11:22:22 2018.
