 Gaussian 16, Revision A.03,
 Gaussian 16:  ES64L-G16RevA.03 25-Dec-2016

 ----------------------------------------------------------------------
 #P ROCCSD(T)=(MaxCyc=150, Full)/Gen SCF=(maxcycle=400, vshift=200) Pse
 udo=Read Integral(NoXCTest) Pop=Regular MaxDisk=500GB Guess=Read
 ----------------------------------------------------------------------

 ---
 NiO
 ---
 Symbolic Z-matrix:
 Charge =  0 Multiplicity = 3

                         Standard orientation:
 ---------------------------------------------------------------------
 Center     Atomic      Atomic             Coordinates (Angstroms)
 Number     Number       Type             X           Y           Z
 ---------------------------------------------------------------------
      1         28           0        0.000000    0.000000    0.311111
      2          8           0        0.000000    0.000000   -1.088889
 ---------------------------------------------------------------------

 SCF Done:  E(ROHF) =  -184.058174590     A.U. after   29 cycles
 E2 =    -0.1214951178D+01 EUMP2 =    -0.18527312576802D+03
 CCSD(T)
 CCSD(T)= -0.18526898568D+03

 The electronic state is 3-SG.
 Alpha  occ. eigenvalues --   -5.18628  -3.49443  -3.39676  -3.39676  -1.24719
 Alpha  occ. eigenvalues --   -0.80031  -0.80031  -0.70853  -0.68344  -0.68344
 Alpha  occ. eigenvalues --   -0.41903  -0.41903  -0.37295
 Alpha virt. eigenvalues --   -0.03018   0.02648   0.02648   0.03052   0.04148
 Alpha virt. eigenvalues --    0.09043   0.09043   0.11096   0.12542   0.12542
 Alpha virt. eigenvalues --    0.13196   0.13196   0.15252   0.17091   0.26318

 Mulliken charges and spin densities:
               1          2
     1  Ni   1.079973   1.763434
     2  O   -1.079973   0.236566
 Sum of Mulliken charges =  -0.00000   2.00000

 Dipole moment (field-independent basis, Debye):
    X=              0.0000    Y=              0.0000    Z=              6.3714  Tot=              6.3714
 Quadrupole moment (field-independent basis, Debye-Ang):
   XX=            -18.3172   YY=            -18.3172   ZZ=            -19.4731
   XY=              0.0000   XZ=              0.0000   YZ=              0.0000

 \\#P ROCCSD(T)=(MaxCyc=150, Full)/Gen SCF=(maxcycle=400, vshift=200) P
 PMP2-0=-185.2731258\MP4SDQ=-185.2451748\CCSD=-185.2141254\CCSD(T)=-185
 Normal termination of Gaussian 16 at Fri May  4 11:36:16 2018.
