 Gaussian 16, Revision A.03,
 Gaussian 16:  ES64L-G16RevA.03 25-Dec-2016

 ----------------------------------------------------------------------
 #P ROCCSD(T)=(MaxCyc=150, Full)/Gen SCF=(maxcycle=400) Integral(DKHSO,
  NoXCTest) Pop=Regular MaxDisk=500GB Guess=Permute IOp(5/15=2)
 ----------------------------------------------------------------------

 --
 Fe
 --
 Symbolic Z-matrix:
 Charge =  0 Multiplicity = 5

                         Standard orientation:
 ---------------------------------------------------------------------
 Center     Atomic      Atomic             Coordinates (Angstroms)
 Number     Number       Type             X           Y           Z
 ---------------------------------------------------------------------
      1         26           0        0.000000    0.000000    0.000000
 ---------------------------------------------------------------------

 SCF Done:  E(ROHF) =  -1271.35359886     A.U. after   48 cycles
 E2 =    -0.1126701198D+01 EUMP2 =    -0.12724803000575D+04
 CCSD(T)
 CCSD(T)= -0.12724778021D+04

 Unable to determine electronic state:  an orbital has unidentified symmetry.
 Alpha  occ. eigenvalues -- -263.68624 -32.49495 -27.58239 -27.54867 -27.54867
 Alpha  occ. eigenvalues --   -4.41958  -3.01296  -2.93868  -2.93868  -0.69797
 Alpha  occ. eigenvalues --   -0.68798  -0.68798  -0.65690  -0.60500  -0.27547
 Alpha virt. eigenvalues --    0.01760   0.01918   0.01918   0.02200   0.05719
 Alpha virt. eigenvalues --    0.06067   0.06067   0.06210   0.06215   0.06215
 Alpha virt. eigenvalues --    0.06231   0.06239   0.10789   0.19112   0.19403

 Mulliken charges and spin densities:
               1          2
     1  Fe  -0.000000   4.000000
 Sum of Mulliken charges =  -0.00000   4.00000

 Dipole moment (field-independent basis, Debye):
    X=             -0.0000    Y=              0.0000    Z=             -0.0000  Tot=              0.0000
 Quadrupole moment (field-independent basis, Debye-Ang):
   XX=            -18.3154   YY=            -18.3154   ZZ=            -18.0408
   XY=             -0.0000   XZ=              0.0000   YZ=              0.0000

 1\1\GINC-C405-001\SP\ROCCSD(T)-Full\Gen\Fe1(5)\GWANG18\01-Mar-2018\2\\
 #P ROCCSD(T)=(MaxCyc=150, Full)/Gen SCF=(maxcycle=400) Integral(DKHSO,
  NoXCTest) Pop=Regular MaxDisk=500GB Guess=Permute IOp(5/15=2)\\Fe\\0,
 5\Fe,0,0.,0.,0.\\1,2,3,4,5,6,7,8,9,15,10,11,12,13,14\\Version=ES64L-G1
 6RevA.03\HF=-1271.3535989\MP2=-1272.4803001\MP3=-1272.4454315\PUHF=-12
 71.3535989\PMP2-0=-1272.4803001\MP4SDQ=-1272.4574816\CCSD=-1272.454929
 3\CCSD(T)=-1272.4778021\RMSD=1.231e-09\PG=OH [O(Fe1)]\\@

 Normal termination of Gaussian 16 at Thu Mar  1 21:34:54 2018.
