 Gaussian 16, Revision A.03,
 Gaussian 16:  ES64L-G16RevA.03 25-Dec-2016

 ----------------------------------------------------------------------
 #P ROCCSD(T)=(MaxCyc=150, Full)/Gen SCF=(maxcycle=400) Integral(DKHSO,
  NoXCTest) Pop=Regular MaxDisk=500GB Guess=Permute IOp(5/15=2)
 ----------------------------------------------------------------------

 --
 Fe
 --
 Symbolic Z-matrix:
 Charge =  0 Multiplicity = 5

                         Standard orientation:
 ---------------------------------------------------------------------
 Center     Atomic      Atomic             Coordinates (Angstroms)
 Number     Number       Type             X           Y           Z
 ---------------------------------------------------------------------
      1         26           0        0.000000    0.000000    0.000000
 ---------------------------------------------------------------------

 SCF Done:  E(ROHF) =  -1271.35339966     A.U. after   20 cycles
 E2 =    -0.1100114725D+01 EUMP2 =    -0.12724535143875D+04
 CCSD(T)
 CCSD(T)= -0.12724523805D+04

 Unable to determine electronic state:  an orbital has unidentified symmetry.
 Alpha  occ. eigenvalues -- -263.68621 -32.49496 -27.58246 -27.54866 -27.54866
 Alpha  occ. eigenvalues --   -4.41959  -3.01299  -2.93868  -2.93868  -0.69799
 Alpha  occ. eigenvalues --   -0.68799  -0.68799  -0.65691  -0.60495  -0.27547
 Alpha virt. eigenvalues --    0.01791   0.01956   0.01956   0.02705   0.05938
 Alpha virt. eigenvalues --    0.06297   0.06297   0.06763   0.06769   0.06769
 Alpha virt. eigenvalues --    0.06789   0.06798   0.14345   0.20385   0.20941

 Mulliken charges and spin densities:
               1          2
     1  Fe  -0.000000   4.000000
 Sum of Mulliken charges =  -0.00000   4.00000

 Dipole moment (field-independent basis, Debye):
    X=              0.0000    Y=              0.0000    Z=             -0.0000  Tot=              0.0000
 Quadrupole moment (field-independent basis, Debye-Ang):
   XX=            -18.0413   YY=            -18.3163   ZZ=            -18.3163
   XY=              0.0000   XZ=             -0.0000   YZ=              0.0000

 1\1\GINC-C405-001\SP\ROCCSD(T)-Full\Gen\Fe1(5)\GWANG18\01-Mar-2018\2\\
 #P ROCCSD(T)=(MaxCyc=150, Full)/Gen SCF=(maxcycle=400) Integral(DKHSO,
  NoXCTest) Pop=Regular MaxDisk=500GB Guess=Permute IOp(5/15=2)\\Fe\\0,
 5\Fe,0,0.,0.,0.\\1,2,3,4,5,6,7,8,9,15,10,11,12,13,14\\Version=ES64L-G1
 6RevA.03\HF=-1271.3533997\MP2=-1272.4535144\MP3=-1272.4202945\PUHF=-12
 71.3533997\PMP2-0=-1272.4535144\MP4SDQ=-1272.4326813\CCSD=-1272.430027
 3\CCSD(T)=-1272.4523805\RMSD=7.637e-09\PG=OH [O(Fe1)]\\@

 Normal termination of Gaussian 16 at Thu Mar  1 16:07:54 2018.
