 Gaussian 16, Revision A.03,
 Gaussian 16:  ES64L-G16RevA.03 25-Dec-2016

 ----------------------------------------------------------------------
 #P ROCCSD(T)=(MaxCyc=150, Full)/Gen SCF=(maxcycle=400) Pseudo=Read Int
 egral(NoXCTest) Pop=Regular MaxDisk=500GB Guess=Read IOp(5/15=2)
 ----------------------------------------------------------------------

 ---
 CuH
 ---
 Symbolic Z-matrix:
 Charge =  0 Multiplicity = 1

                         Standard orientation:
 ---------------------------------------------------------------------
 Center     Atomic      Atomic             Coordinates (Angstroms)
 Number     Number       Type             X           Y           Z
 ---------------------------------------------------------------------
      1         29           0        0.000000    0.000000    0.040000
      2          1           0        0.000000    0.000000   -1.160000
 ---------------------------------------------------------------------

 SCF Done:  E(ROHF) =  -197.083522053     A.U. after    8 cycles
 E2 =    -0.1172874709D+01 EUMP2 =    -0.19825639676141D+03
 CCSD(T)
 CCSD(T)= -0.19817049823D+03

 The electronic state is 1-SG.
 Alpha  occ. eigenvalues --   -5.27690  -3.55039  -3.53606  -3.53606  -0.55994
 Alpha  occ. eigenvalues --   -0.52646  -0.52646  -0.51359  -0.51359  -0.33499
 Alpha virt. eigenvalues --    0.00502   0.02587   0.02587   0.02747   0.04679
 Alpha virt. eigenvalues --    0.07878   0.08567   0.08567   0.11932   0.11932
 Alpha virt. eigenvalues --    0.12009   0.12604   0.12604   0.15102   0.18765

 Mulliken charges and spin densities:
               1          2
     1  Cu   0.356470   0.000000
     2  H   -0.356470   0.000000
 Sum of Mulliken charges =  -0.00000   0.00000

 Dipole moment (field-independent basis, Debye):
    X=              0.0000    Y=              0.0000    Z=              3.3778  Tot=              3.3778
 Quadrupole moment (field-independent basis, Debye-Ang):
   XX=            -13.9688   YY=            -13.9688   ZZ=            -14.6532
   XY=              0.0000   XZ=              0.0000   YZ=              0.0000

 P ROCCSD(T)=(MaxCyc=150, Full)/Gen SCF=(maxcycle=400) Pseudo=Read Inte
 2-0=-198.2563968\MP4SDQ=-198.2021216\CCSD=-198.1296595\CCSD(T)=-198.17
 Normal termination of Gaussian 16 at Thu May  3 11:09:32 2018.
