 Gaussian 16, Revision A.03,
 Gaussian 16:  ES64L-G16RevA.03 25-Dec-2016

 ----------------------------------------------------------------------
 #P ROCCSD(T)=(maxcyc=150, Full, SaveAmplitudes, ReadAmplitudes)/Gen 5d
  7f SCF=(maxcycles=300) Integral(NoXCTest) MaxDisk=500GB Pop=Regular P
 seudo=Read Guess=Read
 ----------------------------------------------------------------------

 ---
 CrO
 ---
 Symbolic Z-matrix:
 Charge =  0 Multiplicity = 5

                         Standard orientation:
 ---------------------------------------------------------------------
 Center     Atomic      Atomic             Coordinates (Angstroms)
 Number     Number       Type             X           Y           Z
 ---------------------------------------------------------------------
      1         24           0        0.000000    0.000000    0.425000
      2          8           0        0.000000    0.000000   -1.275000
 ---------------------------------------------------------------------

 SCF Done:  E(ROHF) =  -101.876137613     A.U. after   27 cycles
 E2 =    -0.8989951332D+00 EUMP2 =    -0.10277513274576D+03
 CCSD(T)
 CCSD(T)= -0.10281691270D+03

 Unable to determine electronic state:  an orbital has unidentified symmetry.
 Alpha  occ. eigenvalues --   -3.76098  -2.50857  -2.46209  -2.45018  -1.12014
 Alpha  occ. eigenvalues --   -0.56112  -0.55953  -0.54227  -0.49684  -0.36683
 Alpha  occ. eigenvalues --   -0.33929  -0.32747
 Alpha virt. eigenvalues --   -0.03371   0.00780   0.01376   0.01748   0.03130
 Alpha virt. eigenvalues --    0.04600   0.05254   0.05254   0.05681   0.05971
 Alpha virt. eigenvalues --    0.06093   0.06644   0.11176   0.11491   0.13607

 Mulliken charges and spin densities:
               1          2
     1  Cr   1.153254   3.924793
     2  O   -1.153254   0.075207
 Sum of Mulliken charges =  -0.00000   4.00000

 Dipole moment (field-independent basis, Debye):
    X=              0.0000    Y=              0.0000    Z=              8.8408  Tot=              8.8408
 Quadrupole moment (field-independent basis, Debye-Ang):
   XX=            -19.7600   YY=            -18.7370   ZZ=            -23.1595
   XY=              0.0000   XZ=              0.0000   YZ=              0.0000

 \\#P ROCCSD(T)=(maxcyc=150, Full, SaveAmplitudes, ReadAmplitudes)/Gen
 MP2-0=-102.7751327\CCSD=-102.7648302\CCSD(T)=-102.8169127\RMSD=5.066e-
 Normal termination of Gaussian 16 at Tue Mar 13 08:25:11 2018.
