 Gaussian 16, Revision A.03,
 Gaussian 16:  ES64L-G16RevA.03 25-Dec-2016

 ----------------------------------------------------------------------
 #P ROCCSD(T)=(maxcyc=150, Full, SaveAmplitudes, ReadAmplitudes)/Gen 5d
  7f SCF=(maxcycles=300, VShift=400) Integral(NoXCTest) MaxDisk=500GB P
 op=Full Pseudo=Read Guess=Read
 ----------------------------------------------------------------------

 ---
 ScH
 ---
 Symbolic Z-matrix:
 Charge =  0 Multiplicity = 1

                         Standard orientation:
 ---------------------------------------------------------------------
 Center     Atomic      Atomic             Coordinates (Angstroms)
 Number     Number       Type             X           Y           Z
 ---------------------------------------------------------------------
      1         21           0        0.000000    0.000000    0.063636
      2          1           0        0.000000    0.000000   -1.336364
 ---------------------------------------------------------------------

 SCF Done:  E(ROHF) =  -46.6369666743     A.U. after   21 cycles
 E2 =    -0.4290712622D+00 EUMP2 =    -0.47066037936536D+02
 CCSD(T)
 CCSD(T)= -0.47105599459D+02

 The electronic state is 1-SG.
 Alpha  occ. eigenvalues --   -2.63727  -1.64107  -1.62365  -1.62365  -0.45293
 Alpha  occ. eigenvalues --   -0.21927
 Alpha virt. eigenvalues --    0.01257   0.01257   0.01517   0.01915   0.02888
 Alpha virt. eigenvalues --    0.02888   0.02895   0.02895   0.02908   0.04336
 Alpha virt. eigenvalues --    0.04336   0.04428   0.07863   0.08051   0.08051

 Mulliken charges and spin densities:
               1          2
     1  Sc   0.285355   0.000000
     2  H   -0.285355   0.000000
 Sum of Mulliken charges =  -0.00000   0.00000

 Dipole moment (field-independent basis, Debye):
    X=              0.0000    Y=              0.0000    Z=              0.6768  Tot=              0.6768
 Quadrupole moment (field-independent basis, Debye-Ang):
   XX=            -23.4913   YY=            -23.4913   ZZ=            -23.8694
   XY=              0.0000   XZ=              0.0000   YZ=              0.0000

 P ROCCSD(T)=(maxcyc=150, Full, SaveAmplitudes, ReadAmplitudes)/Gen 5d
 =-46.6369667\PMP2-0=-47.0660379\CCSD=-47.0869061\CCSD(T)=-47.1055995\R
 Normal termination of Gaussian 16 at Thu Apr 19 08:08:10 2018.
