 Gaussian 16, Revision A.03,
 Gaussian 16:  ES64L-G16RevA.03 25-Dec-2016

 ----------------------------------------------------------------------
 #P ROCCSD(T)=(maxcyc=150, Full)/Gen 5d 7f SCF=(maxcycles=300, NoVarAcc
 , VShift=300) MaxDisk=100GB Pop=Regular Pseudo=Read Guess=Read IOp(5/1
 5=2)
 ----------------------------------------------------------------------

 --
 Cr
 --
 Symbolic Z-matrix:
 Charge =  0 Multiplicity = 7

                         Standard orientation:
 ---------------------------------------------------------------------
 Center     Atomic      Atomic             Coordinates (Angstroms)
 Number     Number       Type             X           Y           Z
 ---------------------------------------------------------------------
      1         24           0        0.000000    0.000000    0.000000
 ---------------------------------------------------------------------

 SCF Done:  E(ROHF) =  -85.8686014694     A.U. after   26 cycles
 E2 =    -0.5526756347D+00 EUMP2 =    -0.86421277104079D+02
 CCSD(T)
 CCSD(T)= -0.86431552431D+02

 The electronic state is 7-A1G.
 Alpha  occ. eigenvalues --   -3.57717  -2.29071  -2.29071  -2.29071  -0.36959
 Alpha  occ. eigenvalues --   -0.36959  -0.36959  -0.36959  -0.36959  -0.22680
 Alpha virt. eigenvalues --    0.01733   0.01733   0.01733   0.02413   0.05525
 Alpha virt. eigenvalues --    0.05525   0.05525   0.05525   0.05525   0.05971
 Alpha virt. eigenvalues --    0.05971   0.05971   0.12701   0.17967   0.17967

 Mulliken charges and spin densities:
               1          2
     1  Cr   0.000000   6.000000
 Sum of Mulliken charges =   0.00000   6.00000

 Dipole moment (field-independent basis, Debye):
    X=              0.0000    Y=              0.0000    Z=              0.0000  Tot=              0.0000
 Quadrupole moment (field-independent basis, Debye-Ang):
   XX=            -16.4365   YY=            -16.4365   ZZ=            -16.4365
   XY=              0.0000   XZ=             -0.0000   YZ=             -0.0000

 1\1\GINC-C506-003\SP\ROCCSD(T)-Full\Gen\Cr1(7)\AANNABE\05-Apr-2018\0\\
 #P ROCCSD(T)=(maxcyc=150, Full)/Gen 5d 7f SCF=(maxcycles=300, NoVarAcc
 , VShift=300) MaxDisk=100GB Pop=Regular Pseudo=Read Guess=Read IOp(5/1
 5=2)\\Cr\\0,7\Cr,0,0.,0.,0.\\Version=ES64L-G16RevA.03\State=7-A1G\HF=-
 85.8686015\MP2=-86.4212771\MP3=-86.4119966\PUHF=-85.8686015\PMP2-0=-86
 .4212771\MP4SDQ=-86.4154656\CCSD=-86.4144244\CCSD(T)=-86.4315524\RMSD=
 4.378e-09\PG=OH [O(Cr1)]\\@

 Normal termination of Gaussian 16 at Thu Apr  5 18:11:15 2018.
