 Gaussian 16, Revision A.03,
 Gaussian 16:  ES64L-G16RevA.03 25-Dec-2016

 ----------------------------------------------------------------------
 #P ROCCSD(T)=(maxcyc=150, Window=(7,0), SaveAmplitudes, ReadAmplitudes
 )/Gen 5d 7f SCF=(maxcycles=300) Integral(NoXCTest, DKHSO) MaxDisk=500G
 B Pop=Regular Guess=Read
 ----------------------------------------------------------------------

 ---
 TiO
 ---
 Symbolic Z-matrix:
 Charge =  0 Multiplicity = 3

                         Standard orientation:
 ---------------------------------------------------------------------
 Center     Atomic      Atomic             Coordinates (Angstroms)
 Number     Number       Type             X           Y           Z
 ---------------------------------------------------------------------
      1         22           0        0.000000    0.000000    0.320000
      2          8           0        0.000000    0.000000   -0.880000
 ---------------------------------------------------------------------

 SCF Done:  E(ROHF) =  -927.436896270     A.U. after   20 cycles
 E2 =    -0.7368457962D+00 EUMP2 =    -0.92817374206662D+03
 CCSD(T)
 CCSD(T)= -0.92819181343D+03

 Unable to determine electronic state:  an orbital has unidentified symmetry.
 Alpha  occ. eigenvalues -- -184.30500 -21.55069 -20.61205 -17.71895 -17.71895
 Alpha  occ. eigenvalues --  -17.71796  -2.92668  -2.00014  -1.79176  -1.79176
 Alpha  occ. eigenvalues --   -1.10777  -0.65602  -0.65602  -0.54445  -0.32419
 Alpha  occ. eigenvalues --   -0.20024
 Alpha virt. eigenvalues --    0.01213   0.01213   0.01882   0.02587   0.03724
 Alpha virt. eigenvalues --    0.03724   0.03785   0.03826   0.03882   0.04797
 Alpha virt. eigenvalues --    0.04797   0.07241   0.10430   0.10878   0.11081

 Mulliken charges and spin densities:
               1          2
     1  Ti   0.701462   1.998690
     2  O   -0.701462   0.001310
 Sum of Mulliken charges =  -0.00000   2.00000

 Dipole moment (field-independent basis, Debye):
    X=              0.0000    Y=              0.0000    Z=             -0.7012  Tot=              0.7012
 Quadrupole moment (field-independent basis, Debye-Ang):
   XX=            -22.9509   YY=            -22.9509   ZZ=            -26.9094
   XY=              0.0000   XZ=              0.0000   YZ=              0.0000

 1\1\GINC-C505-101\SP\ROCCSD(T)-RW\Gen\O1Ti1(3)\AANNABE\14-Mar-2018\0\\
 #P ROCCSD(T)=(maxcyc=150, Window=(7,0), SaveAmplitudes, ReadAmplitudes
 )/Gen 5d 7f SCF=(maxcycles=300) Integral(NoXCTest, DKHSO) MaxDisk=500G
 B Pop=Regular Guess=Read\\TiO\\0,3\Ti,0,0.,0.,0.\O,0,0.,0.,1.2\\Versio
 n=ES64L-G16RevA.03\HF=-927.4368963\MP2=-928.1737421\PUHF=-927.4368963\
 PMP2-0=-928.1737421\CCSD=-928.1603654\CCSD(T)=-928.1918134\RMSD=1.218e
 -09\PG=C*V [C*(O1Ti1)]\\@

 Normal termination of Gaussian 16 at Wed Mar 14 14:36:16 2018.
