 Gaussian 16, Revision A.03,
 Gaussian 16:  ES64L-G16RevA.03 25-Dec-2016

 ----------------------------------------------------------------------
 #P ROCCSD(T)=(maxcyc=150, Full, SaveAmplitudes, ReadAmplitudes)/Gen 5d
  7f SCF=(maxcycles=300) Integral(NoXCTest) MaxDisk=500GB Pop=Regular P
 seudo=Read Guess=Read
 ----------------------------------------------------------------------

 ---
 MnO
 ---
 Symbolic Z-matrix:
 Charge =  0 Multiplicity = 6

                         Standard orientation:
 ---------------------------------------------------------------------
 Center     Atomic      Atomic             Coordinates (Angstroms)
 Number     Number       Type             X           Y           Z
 ---------------------------------------------------------------------
      1         25           0        0.000000    0.000000    0.460606
      2          8           0        0.000000    0.000000   -1.439394
 ---------------------------------------------------------------------

 SCF Done:  E(ROHF) =  -119.346927234     A.U. after   22 cycles
 E2 =    -0.9418576282D+00 EUMP2 =    -0.12028878486253D+03
 CCSD(T)
 CCSD(T)= -0.12031432567D+03

 The electronic state is 6-SG.
 Alpha  occ. eigenvalues --   -4.11280  -2.77666  -2.77666  -2.77312  -1.10122
 Alpha  occ. eigenvalues --   -0.65794  -0.65794  -0.65727  -0.65727  -0.63309
 Alpha  occ. eigenvalues --   -0.34536  -0.34536  -0.32358
 Alpha virt. eigenvalues --   -0.05508   0.01070   0.01070   0.01349   0.03341
 Alpha virt. eigenvalues --    0.05482   0.05482   0.05690   0.05690   0.06369
 Alpha virt. eigenvalues --    0.06745   0.06745   0.10735   0.12530   0.17858

 Mulliken charges and spin densities:
               1          2
     1  Mn   1.067850   4.962202
     2  O   -1.067850   0.037798
 Sum of Mulliken charges =  -0.00000   5.00000

 Dipole moment (field-independent basis, Debye):
    X=              0.0000    Y=              0.0000    Z=              9.3665  Tot=              9.3665
 Quadrupole moment (field-independent basis, Debye-Ang):
   XX=            -19.2427   YY=            -19.2427   ZZ=            -25.0988
   XY=              0.0000   XZ=              0.0000   YZ=              0.0000

 \\#P ROCCSD(T)=(maxcyc=150, Full, SaveAmplitudes, ReadAmplitudes)/Gen
 9.3469272\PMP2-0=-120.2887849\CCSD=-120.272506\CCSD(T)=-120.3143257\RM
 Normal termination of Gaussian 16 at Wed Mar 14 07:00:51 2018.
