 Gaussian 16, Revision A.03,
 Gaussian 16:  ES64L-G16RevA.03 25-Dec-2016

 ----------------------------------------------------------------------
 #P ROCCSD(T)=(maxcyc=150, Full, SaveAmplitudes, ReadAmplitudes)/Gen 5d
  7f SCF=(maxcycles=300) Integral(NoXCTest) MaxDisk=500GB Pop=Regular P
 seudo=Read Guess=Read
 ----------------------------------------------------------------------

 ---
 ScO
 ---
 Symbolic Z-matrix:
 Charge =  0 Multiplicity = 2

                         Standard orientation:
 ---------------------------------------------------------------------
 Center     Atomic      Atomic             Coordinates (Angstroms)
 Number     Number       Type             X           Y           Z
 ---------------------------------------------------------------------
      1         21           0        0.000000    0.000000    0.496552
      2          8           0        0.000000    0.000000   -1.303448
 ---------------------------------------------------------------------

 SCF Done:  E(ROHF) =  -62.0459017041     A.U. after   17 cycles
 E2 =    -0.7168562489D+00 EUMP2 =    -0.62762757953039D+02
 CCSD(T)
 CCSD(T)= -0.62791475085D+02

 The electronic state is 2-SG.
 Alpha  occ. eigenvalues --   -2.74530  -1.66689  -1.65577  -1.65577  -1.11899
 Alpha  occ. eigenvalues --   -0.41458  -0.38496  -0.38496  -0.26457
 Alpha virt. eigenvalues --   -0.00469  -0.00469   0.01081   0.01937   0.02658
 Alpha virt. eigenvalues --    0.02658   0.02776   0.02776   0.03223   0.03223
 Alpha virt. eigenvalues --    0.03604   0.04091   0.06128   0.06128   0.09117

 Mulliken charges and spin densities:
               1          2
     1  Sc   1.274458   0.986959
     2  O   -1.274458   0.013041
 Sum of Mulliken charges =  -0.00000   1.00000

 Dipole moment (field-independent basis, Debye):
    X=              0.0000    Y=              0.0000    Z=              5.7833  Tot=              5.7833
 Quadrupole moment (field-independent basis, Debye-Ang):
   XX=            -21.8695   YY=            -21.8695   ZZ=            -33.4764
   XY=              0.0000   XZ=              0.0000   YZ=              0.0000

 \\#P ROCCSD(T)=(maxcyc=150, Full, SaveAmplitudes, ReadAmplitudes)/Gen
 59017\PMP2-0=-62.762758\CCSD=-62.7464578\CCSD(T)=-62.7914751\RMSD=2.09
 Normal termination of Gaussian 16 at Wed Feb 21 06:27:12 2018.
