 Gaussian 16, Revision A.03,
 Gaussian 16:  ES64L-G16RevA.03 25-Dec-2016

 ----------------------------------------------------------------------
 #P ROCCSD(T)=(maxcyc=150, Full, SaveAmplitudes, ReadAmplitudes)/Gen 5d
  7f SCF=(maxcycles=300, VShift=400) Integral(NoXCTest) MaxDisk=500GB P
 op=Full Pseudo=Read Guess=Read
 ----------------------------------------------------------------------

 ---
 MnH
 ---
 Symbolic Z-matrix:
 Charge =  0 Multiplicity = 7

                         Standard orientation:
 ---------------------------------------------------------------------
 Center     Atomic      Atomic             Coordinates (Angstroms)
 Number     Number       Type             X           Y           Z
 ---------------------------------------------------------------------
      1         25           0        0.000000    0.000000    0.076923
      2          1           0        0.000000    0.000000   -1.923077
 ---------------------------------------------------------------------

 SCF Done:  E(ROHF) =  -104.250600237     A.U. after   28 cycles
 E2 =    -0.5983925033D+00 EUMP2 =    -0.10484899274014D+03
 CCSD(T)
 CCSD(T)= -0.10487202547D+03

 The electronic state is 7-SG.
 Alpha  occ. eigenvalues --   -4.15588  -2.78416  -2.78416  -2.78160  -0.66728
 Alpha  occ. eigenvalues --   -0.66728  -0.66070  -0.66070  -0.66022  -0.38651
 Alpha  occ. eigenvalues --   -0.26950
 Alpha virt. eigenvalues --    0.00963   0.00963   0.02149   0.02897   0.04865
 Alpha virt. eigenvalues --    0.04865   0.05568   0.05751   0.05751   0.06196
 Alpha virt. eigenvalues --    0.06196   0.09628   0.12158   0.13642   0.17994

 Mulliken charges and spin densities:
               1          2
     1  Mn   0.383754   5.952242
     2  H   -0.383754   0.047758
 Sum of Mulliken charges =  -0.00000   6.00000

 Dipole moment (field-independent basis, Debye):
    X=              0.0000    Y=              0.0000    Z=              2.4327  Tot=              2.4327
 Quadrupole moment (field-independent basis, Debye-Ang):
   XX=            -16.3868   YY=            -16.3868   ZZ=            -28.0148
   XY=              0.0000   XZ=              0.0000   YZ=              0.0000

 \\#P ROCCSD(T)=(maxcyc=150, Full, SaveAmplitudes, ReadAmplitudes)/Gen
 PUHF=-104.2506002\PMP2-0=-104.8489927\CCSD=-104.855522\CCSD(T)=-104.87
 Normal termination of Gaussian 16 at Wed Apr  4 09:44:12 2018.
