 Gaussian 16, Revision A.03,
 Gaussian 16:  ES64L-G16RevA.03 25-Dec-2016

 ----------------------------------------------------------------------
 #P ROCCSD(T)=(MaxCyc=150, Full)/Gen SCF=(maxcycle=400) Pseudo=Read Int
 egral(NoXCTest) Pop=Regular MaxDisk=500GB Guess=Read IOp(5/15=2)
 ----------------------------------------------------------------------

 ---
 ZnO
 ---
 Symbolic Z-matrix:
 Charge =  0 Multiplicity = 1

                         Standard orientation:
 ---------------------------------------------------------------------
 Center     Atomic      Atomic             Coordinates (Angstroms)
 Number     Number       Type             X           Y           Z
 ---------------------------------------------------------------------
      1         30           0        0.000000    0.000000    0.273684
      2          8           0        0.000000    0.000000   -1.026316
 ---------------------------------------------------------------------

 SCF Done:  E(ROHF) =  -241.483918993     A.U. after    1 cycles
 E2 =    -0.1370512359D+01 EUMP2 =    -0.24285443135249D+03
 CCSD(T)
 CCSD(T)= -0.24278622680D+03

 The electronic state is 1-SG.
 Alpha  occ. eigenvalues --   -5.63426  -3.94543  -3.91527  -3.91527  -1.27334
 Alpha  occ. eigenvalues --   -0.88224  -0.88224  -0.82975  -0.82975  -0.79443
 Alpha  occ. eigenvalues --   -0.42885  -0.42885  -0.39338
 Alpha virt. eigenvalues --   -0.02637   0.03126   0.03126   0.03477   0.04420
 Alpha virt. eigenvalues --    0.10430   0.10430   0.13666   0.18710   0.21373
 Alpha virt. eigenvalues --    0.22748   0.22748   0.25454   0.25454   0.30499

 Mulliken charges and spin densities:
               1          2
     1  Zn   1.325233   0.000000
     2  O   -1.325233   0.000000
 Sum of Mulliken charges =  -0.00000   0.00000

 Dipole moment (field-independent basis, Debye):
    X=              0.0000    Y=              0.0000    Z=              5.7534  Tot=              5.7534
 Quadrupole moment (field-independent basis, Debye-Ang):
   XX=            -17.8464   YY=            -17.8464   ZZ=            -19.4226
   XY=              0.0000   XZ=              0.0000   YZ=              0.0000

 P ROCCSD(T)=(MaxCyc=150, Full)/Gen SCF=(maxcycle=400) Pseudo=Read Inte
 0=-242.8544314\MP4SDQ=-242.786929\CCSD=-242.7378829\CCSD(T)=-242.78622
 Normal termination of Gaussian 16 at Tue Mar 27 11:38:37 2018.
