 Gaussian 16, Revision A.03,
 Gaussian 16:  ES64L-G16RevA.03 25-Dec-2016

 ----------------------------------------------------------------------
 #P ROCCSD(T)=(MaxCyc=150, Full)/Gen SCF=(maxcycle=400) Pseudo=Read Int
 egral(NoXCTest) Pop=Regular MaxDisk=500GB Guess=Read IOp(5/15=2)
 ----------------------------------------------------------------------

 ---
 ZnO
 ---
 Symbolic Z-matrix:
 Charge =  0 Multiplicity = 1

                         Standard orientation:
 ---------------------------------------------------------------------
 Center     Atomic      Atomic             Coordinates (Angstroms)
 Number     Number       Type             X           Y           Z
 ---------------------------------------------------------------------
      1         30           0        0.000000    0.000000    0.273684
      2          8           0        0.000000    0.000000   -1.026316
 ---------------------------------------------------------------------

 SCF Done:  E(ROHF) =  -241.487542054     A.U. after   11 cycles
 E2 =    -0.1439285265D+01 EUMP2 =    -0.24292682731830D+03
 CCSD(T)
 CCSD(T)= -0.24285631236D+03

 The electronic state is 1-SG.
 Alpha  occ. eigenvalues --   -5.63386  -3.94509  -3.91502  -3.91502  -1.27278
 Alpha  occ. eigenvalues --   -0.88220  -0.88220  -0.82972  -0.82972  -0.79427
 Alpha  occ. eigenvalues --   -0.42889  -0.42889  -0.39318
 Alpha virt. eigenvalues --   -0.02630   0.02805   0.02805   0.03189   0.04027
 Alpha virt. eigenvalues --    0.09066   0.09066   0.12449   0.16951   0.17947
 Alpha virt. eigenvalues --    0.18408   0.18408   0.19548   0.19548   0.23050

 Mulliken charges and spin densities:
               1          2
     1  Zn   1.079408   0.000000
     2  O   -1.079408   0.000000
 Sum of Mulliken charges =  -0.00000   0.00000

 Dipole moment (field-independent basis, Debye):
    X=              0.0000    Y=              0.0000    Z=              5.7405  Tot=              5.7405
 Quadrupole moment (field-independent basis, Debye-Ang):
   XX=            -17.8373   YY=            -17.8373   ZZ=            -19.4134
   XY=              0.0000   XZ=              0.0000   YZ=              0.0000

 P ROCCSD(T)=(MaxCyc=150, Full)/Gen SCF=(maxcycle=400) Pseudo=Read Inte
 2-0=-242.9268273\MP4SDQ=-242.8532992\CCSD=-242.8053502\CCSD(T)=-242.85
 Normal termination of Gaussian 16 at Tue Mar 27 13:57:24 2018.
