 Gaussian 16, Revision A.03,
 Gaussian 16:  ES64L-G16RevA.03 25-Dec-2016

 ----------------------------------------------------------------------
 #P ROCCSD(T)=(maxcyc=150, Full, SaveAmplitudes, ReadAmplitudes)/Gen 5d
  7f SCF=(maxcycles=300) Integral(NoXCTest) MaxDisk=500GB Pop=Regular P
 seudo=Read Guess=Read IOp(5/15=2)
 ----------------------------------------------------------------------

 ---
 ScO
 ---
 Symbolic Z-matrix:
 Charge =  0 Multiplicity = 2

                         Standard orientation:
 ---------------------------------------------------------------------
 Center     Atomic      Atomic             Coordinates (Angstroms)
 Number     Number       Type             X           Y           Z
 ---------------------------------------------------------------------
      1         21           0        0.000000    0.000000    0.468966
      2          8           0        0.000000    0.000000   -1.231034
 ---------------------------------------------------------------------

 SCF Done:  E(ROHF) =  -61.8305700609     A.U. after   17 cycles
 E2 =    -0.6811328407D+00 EUMP2 =    -0.62511702901546D+02
 CCSD(T)
 CCSD(T)= -0.62541059496D+02

 The electronic state is 2-SG.
 Alpha  occ. eigenvalues --   -2.66413  -1.66811  -1.63829  -1.63829  -1.11803
 Alpha  occ. eigenvalues --   -0.42773  -0.41213  -0.41213  -0.25191
 Alpha virt. eigenvalues --   -0.00034  -0.00034   0.01448   0.02237   0.03540
 Alpha virt. eigenvalues --    0.03540   0.03578   0.03578   0.04202   0.04202
 Alpha virt. eigenvalues --    0.04380   0.05452   0.08067   0.08067   0.10524

 Mulliken charges and spin densities:
               1          2
     1  Sc   1.252102   0.974425
     2  O   -1.252102   0.025575
 Sum of Mulliken charges =  -0.00000   1.00000

 Dipole moment (field-independent basis, Debye):
    X=              0.0000    Y=              0.0000    Z=              4.8435  Tot=              4.8435
 Quadrupole moment (field-independent basis, Debye-Ang):
   XX=            -21.9420   YY=            -21.9420   ZZ=            -32.6422
   XY=              0.0000   XZ=              0.0000   YZ=              0.0000

 \\#P ROCCSD(T)=(maxcyc=150, Full, SaveAmplitudes, ReadAmplitudes)/Gen
 65\CCSD=-62.5008225\CCSD(T)=-62.5410595\RMSD=4.706e-09\PG=C*V [C*(O1Sc
 Normal termination of Gaussian 16 at Wed Feb 21 03:56:52 2018.
