 Gaussian 16, Revision A.03,
 Gaussian 16:  ES64L-G16RevA.03 25-Dec-2016

 ----------------------------------------------------------------------
 #P ROCCSD(T)=(maxcyc=150, Full, SaveAmplitudes, ReadAmplitudes)/Gen 5d
  7f SCF=(maxcycles=300) Integral(NoXCTest) MaxDisk=500GB Pop=Regular P
 seudo=Read Guess=Read IOp(5/15=2)
 ----------------------------------------------------------------------

 ---
 ScO
 ---
 Symbolic Z-matrix:
 Charge =  0 Multiplicity = 2

                         Standard orientation:
 ---------------------------------------------------------------------
 Center     Atomic      Atomic             Coordinates (Angstroms)
 Number     Number       Type             X           Y           Z
 ---------------------------------------------------------------------
      1         21           0        0.000000    0.000000    0.441379
      2          8           0        0.000000    0.000000   -1.158621
 ---------------------------------------------------------------------

 SCF Done:  E(ROHF) =  -62.0565846806     A.U. after   17 cycles
 E2 =    -0.6825156712D+00 EUMP2 =    -0.62739100351825D+02
 CCSD(T)
 CCSD(T)= -0.62767581315D+02

 The electronic state is 2-SG.
 Alpha  occ. eigenvalues --   -2.69010  -1.66051  -1.60101  -1.60101  -1.12519
 Alpha  occ. eigenvalues --   -0.44073  -0.44073  -0.43727  -0.24023
 Alpha virt. eigenvalues --    0.00293   0.00293   0.01698   0.02284   0.03647
 Alpha virt. eigenvalues --    0.03647   0.03741   0.03741   0.04197   0.04197
 Alpha virt. eigenvalues --    0.04264   0.06019   0.09027   0.09027   0.10743

 Mulliken charges and spin densities:
               1          2
     1  Sc   1.290222   0.974939
     2  O   -1.290222   0.025061
 Sum of Mulliken charges =  -0.00000   1.00000

 Dipole moment (field-independent basis, Debye):
    X=              0.0000    Y=              0.0000    Z=              3.8818  Tot=              3.8818
 Quadrupole moment (field-independent basis, Debye-Ang):
   XX=            -21.8535   YY=            -21.8535   ZZ=            -31.8819
   XY=              0.0000   XZ=              0.0000   YZ=              0.0000

 \\#P ROCCSD(T)=(maxcyc=150, Full, SaveAmplitudes, ReadAmplitudes)/Gen
 03\CCSD=-62.7300793\CCSD(T)=-62.7675813\RMSD=6.350e-09\PG=C*V [C*(O1Sc
 Normal termination of Gaussian 16 at Wed Feb 21 02:34:59 2018.
