 Gaussian 16, Revision A.03,
 Gaussian 16:  ES64L-G16RevA.03 25-Dec-2016

 ----------------------------------------------------------------------
 #P ROCCSD(T)=(maxcyc=150, Full)/Gen 5d 7f SCF=(maxcycles=300, NoVarAcc
 , VShift=200) MaxDisk=100GB Pop=Regular Pseudo=Read Guess=Read
 ----------------------------------------------------------------------

 --
 Sc
 --
 Symbolic Z-matrix:
 Charge =  0 Multiplicity = 2

                         Standard orientation:
 ---------------------------------------------------------------------
 Center     Atomic      Atomic             Coordinates (Angstroms)
 Number     Number       Type             X           Y           Z
 ---------------------------------------------------------------------
      1         21           0        0.000000    0.000000    0.000000
 ---------------------------------------------------------------------

 SCF Done:  E(ROHF) =  -46.1272289114     A.U. after   19 cycles
 E2 =    -0.3704966252D+00 EUMP2 =    -0.46497725536615D+02
 CCSD(T)
 CCSD(T)= -0.46534828709D+02

 Unable to determine electronic state:  an orbital has unidentified symmetry.
 Alpha  occ. eigenvalues --   -2.62963  -1.62878  -1.62878  -1.59024  -0.34672
 Alpha  occ. eigenvalues --   -0.21535
 Alpha virt. eigenvalues --    0.01233   0.01331   0.01331   0.02285   0.03911
 Alpha virt. eigenvalues --    0.03920   0.03920   0.03941   0.04006   0.04777
 Alpha virt. eigenvalues --    0.04903   0.04903   0.10113   0.10445   0.10445

 Mulliken charges and spin densities:
               1          2
     1  Sc  -0.000000   1.000000
 Sum of Mulliken charges =  -0.00000   1.00000

 Dipole moment (field-independent basis, Debye):
    X=              0.0000    Y=              0.0000    Z=             -0.0000  Tot=              0.0000
 Quadrupole moment (field-independent basis, Debye-Ang):
   XX=            -23.3434   YY=            -23.3434   ZZ=            -23.0485
   XY=             -0.0000   XZ=              0.0000   YZ=              0.0000

 1\1\GINC-C455-023\SP\ROCCSD(T)-Full\Gen\Sc1(2)\AANNABE\16-Mar-2018\0\\
 #P ROCCSD(T)=(maxcyc=150, Full)/Gen 5d 7f SCF=(maxcycles=300, NoVarAcc
 , VShift=200) MaxDisk=100GB Pop=Regular Pseudo=Read Guess=Read\\Sc\\0,
 2\Sc,0,0.,0.,0.\\Version=ES64L-G16RevA.03\HF=-46.1272289\MP2=-46.49772
 55\MP3=-46.5199276\PUHF=-46.1272289\PMP2-0=-46.4977255\MP4SDQ=-46.5199
 378\CCSD=-46.5201883\CCSD(T)=-46.5348287\RMSD=5.468e-09\PG=OH [O(Sc1)]
 \\@

 Normal termination of Gaussian 16 at Fri Mar 16 16:19:17 2018.
