 Gaussian 16, Revision A.03,
 Gaussian 16:  ES64L-G16RevA.03 25-Dec-2016

 ----------------------------------------------------------------------
 #P ROCCSD(T)=(MaxCyc=150, Full)/Gen SCF=(maxcycle=400, vshift=200) Pse
 udo=Read Integral(NoXCTest) Pop=Regular MaxDisk=500GB Guess=Read IOp(5
 /15=2)
 ----------------------------------------------------------------------

 ---
 CuH
 ---
 Symbolic Z-matrix:
 Charge =  0 Multiplicity = 1

                         Standard orientation:
 ---------------------------------------------------------------------
 Center     Atomic      Atomic             Coordinates (Angstroms)
 Number     Number       Type             X           Y           Z
 ---------------------------------------------------------------------
      1         29           0        0.000000    0.000000    0.056667
      2          1           0        0.000000    0.000000   -1.643333
 ---------------------------------------------------------------------

 SCF Done:  E(ROHF) =  -195.885654562     A.U. after   17 cycles
 E2 =    -0.1075294171D+01 EUMP2 =    -0.19696094873300D+03
 CCSD(T)
 CCSD(T)= -0.19688472714D+03

 The electronic state is 1-SG.
 Alpha  occ. eigenvalues --   -5.22564  -3.39531  -3.39455  -3.39455  -0.49829
 Alpha  occ. eigenvalues --   -0.49829  -0.49721  -0.49721  -0.49698  -0.33301
 Alpha virt. eigenvalues --   -0.00252   0.02880   0.02880   0.03750   0.04944
 Alpha virt. eigenvalues --    0.10002   0.10238   0.10238   0.17096   0.19735
 Alpha virt. eigenvalues --    0.19735   0.20137   0.20137   0.20481   0.25942

 Mulliken charges and spin densities:
               1          2
     1  Cu   0.386801   0.000000
     2  H   -0.386801   0.000000
 Sum of Mulliken charges =  -0.00000   0.00000

 Dipole moment (field-independent basis, Debye):
    X=              0.0000    Y=              0.0000    Z=              4.3797  Tot=              4.3797
 Quadrupole moment (field-independent basis, Debye-Ang):
   XX=            -13.6982   YY=            -13.6982   ZZ=            -17.2501
   XY=              0.0000   XZ=              0.0000   YZ=              0.0000

 P ROCCSD(T)=(MaxCyc=150, Full)/Gen SCF=(maxcycle=400, vshift=200) Pseu
 Normal termination of Gaussian 16 at Sat May  5 21:02:55 2018.
