 Gaussian 16, Revision A.03,
 Gaussian 16:  ES64L-G16RevA.03 25-Dec-2016

 ----------------------------------------------------------------------
 #P ROCCSD(T)=(MaxCyc=150, Full)/Gen SCF=(maxcycle=400, vshift=200) Pse
 udo=Read Integral(NoXCTest) Pop=Regular MaxDisk=500GB Guess=Read IOp(5
 /15=2)
 ----------------------------------------------------------------------

 ---
 CuH
 ---
 Symbolic Z-matrix:
 Charge =  0 Multiplicity = 1

                         Standard orientation:
 ---------------------------------------------------------------------
 Center     Atomic      Atomic             Coordinates (Angstroms)
 Number     Number       Type             X           Y           Z
 ---------------------------------------------------------------------
      1         29           0        0.000000    0.000000    0.056667
      2          1           0        0.000000    0.000000   -1.643333
 ---------------------------------------------------------------------

 SCF Done:  E(ROHF) =  -195.888102299     A.U. after   10 cycles
 E2 =    -0.1152342635D+01 EUMP2 =    -0.19704044493398D+03
 CCSD(T)
 CCSD(T)= -0.19696068327D+03

 The electronic state is 1-SG.
 Alpha  occ. eigenvalues --   -5.22559  -3.39513  -3.39441  -3.39441  -0.49839
 Alpha  occ. eigenvalues --   -0.49839  -0.49730  -0.49730  -0.49701  -0.33307
 Alpha virt. eigenvalues --   -0.00309   0.02504   0.02504   0.03110   0.03907
 Alpha virt. eigenvalues --    0.07651   0.08503   0.08503   0.12162   0.12162
 Alpha virt. eigenvalues --    0.12200   0.12352   0.12352   0.14762   0.18442

 Mulliken charges and spin densities:
               1          2
     1  Cu   0.316894   0.000000
     2  H   -0.316894   0.000000
 Sum of Mulliken charges =   0.00000   0.00000

 Dipole moment (field-independent basis, Debye):
    X=              0.0000    Y=              0.0000    Z=              4.3688  Tot=              4.3688
 Quadrupole moment (field-independent basis, Debye-Ang):
   XX=            -13.6861   YY=            -13.6861   ZZ=            -17.2711
   XY=              0.0000   XZ=              0.0000   YZ=              0.0000

 P ROCCSD(T)=(MaxCyc=150, Full)/Gen SCF=(maxcycle=400, vshift=200) Pseu
 Normal termination of Gaussian 16 at Sun May  6 00:47:48 2018.
