 Gaussian 16, Revision A.03,
 Gaussian 16:  ES64L-G16RevA.03 25-Dec-2016

 ----------------------------------------------------------------------
 #P ROCCSD(T)=(MaxCyc=150, Full)/Gen SCF=(maxcycle=400, vshift=200) Pse
 udo=Read Integral(NoXCTest) Pop=Regular MaxDisk=500GB Guess=Read IOp(5
 /15=2)
 ----------------------------------------------------------------------

 ---
 CuH
 ---
 Symbolic Z-matrix:
 Charge =  0 Multiplicity = 1

                         Standard orientation:
 ---------------------------------------------------------------------
 Center     Atomic      Atomic             Coordinates (Angstroms)
 Number     Number       Type             X           Y           Z
 ---------------------------------------------------------------------
      1         29           0        0.000000    0.000000    0.056667
      2          1           0        0.000000    0.000000   -1.643333
 ---------------------------------------------------------------------

 SCF Done:  E(ROHF) =  -195.887855466     A.U. after   11 cycles
 E2 =    -0.1127265406D+01 EUMP2 =    -0.19701512087146D+03
 CCSD(T)
 CCSD(T)= -0.19693754319D+03

 The electronic state is 1-SG.
 Alpha  occ. eigenvalues --   -5.22559  -3.39513  -3.39442  -3.39442  -0.49838
 Alpha  occ. eigenvalues --   -0.49838  -0.49728  -0.49728  -0.49699  -0.33306
 Alpha virt. eigenvalues --   -0.00262   0.02587   0.02587   0.03398   0.04621
 Alpha virt. eigenvalues --    0.08850   0.08867   0.08867   0.13387   0.13525
 Alpha virt. eigenvalues --    0.13525   0.13752   0.13752   0.19356   0.21875

 Mulliken charges and spin densities:
               1          2
     1  Cu   0.356595   0.000000
     2  H   -0.356595   0.000000
 Sum of Mulliken charges =  -0.00000   0.00000

 Dipole moment (field-independent basis, Debye):
    X=              0.0000    Y=              0.0000    Z=              4.3704  Tot=              4.3704
 Quadrupole moment (field-independent basis, Debye-Ang):
   XX=            -13.6876   YY=            -13.6876   ZZ=            -17.2681
   XY=              0.0000   XZ=              0.0000   YZ=              0.0000

 P ROCCSD(T)=(MaxCyc=150, Full)/Gen SCF=(maxcycle=400, vshift=200) Pseu
 Normal termination of Gaussian 16 at Sat May  5 21:56:01 2018.
