 Gaussian 16, Revision A.03,
 Gaussian 16:  ES64L-G16RevA.03 25-Dec-2016

 ----------------------------------------------------------------------
 #P ROCCSD(T)=(maxcyc=150, Full, SaveAmplitudes, ReadAmplitudes)/Gen 5d
  7f SCF=(maxcycles=300) Integral(NoXCTest) MaxDisk=500GB Pop=Regular P
 seudo=Read Guess=Read
 ----------------------------------------------------------------------

 ---
 CrH
 ---
 Symbolic Z-matrix:
 Charge =  0 Multiplicity = 6

                         Standard orientation:
 ---------------------------------------------------------------------
 Center     Atomic      Atomic             Coordinates (Angstroms)
 Number     Number       Type             X           Y           Z
 ---------------------------------------------------------------------
      1         24           0        0.000000    0.000000    0.044000
      2          1           0        0.000000    0.000000   -1.056000
 ---------------------------------------------------------------------

 SCF Done:  E(ROHF) =  -86.7221496174     A.U. after   34 cycles
 E2 =    -0.6274308915D+00 EUMP2 =    -0.87349580508927D+02
 CCSD(T)
 CCSD(T)= -0.87363420049D+02

 The electronic state is 6-SG.
 Alpha  occ. eigenvalues --   -3.64206  -2.34170  -2.33592  -2.33592  -0.48135
 Alpha  occ. eigenvalues --   -0.43804  -0.43804  -0.40902  -0.40902  -0.25167
 Alpha virt. eigenvalues --    0.01558   0.01795   0.01795   0.02291   0.04729
 Alpha virt. eigenvalues --    0.05509   0.05509   0.05533   0.05533   0.05962
 Alpha virt. eigenvalues --    0.06005   0.06005   0.09341   0.13496   0.16862

 Mulliken charges and spin densities:
               1          2
     1  Cr   0.290429   4.984881
     2  H   -0.290429   0.015119
 Sum of Mulliken charges =  -0.00000   5.00000

 Dipole moment (field-independent basis, Debye):
    X=              0.0000    Y=              0.0000    Z=              2.1281  Tot=              2.1281
 Quadrupole moment (field-independent basis, Debye-Ang):
   XX=            -16.3825   YY=            -16.3825   ZZ=            -17.8128
   XY=              0.0000   XZ=              0.0000   YZ=              0.0000

 \\#P ROCCSD(T)=(maxcyc=150, Full, SaveAmplitudes, ReadAmplitudes)/Gen
 221496\PMP2-0=-87.3495805\CCSD=-87.341126\CCSD(T)=-87.36342\RMSD=9.207
 Normal termination of Gaussian 16 at Sun Feb 25 20:10:30 2018.
