 Gaussian 16, Revision A.03,
 Gaussian 16:  ES64L-G16RevA.03 25-Dec-2016

 ----------------------------------------------------------------------
 #P ROCCSD(T)=(MaxCyc=150, Full)/Gen SCF=(maxcycle=400) Pseudo=Read Int
 egral(NoXCTest) Pop=Regular MaxDisk=500GB Guess=Read IOp(5/15=2)
 ----------------------------------------------------------------------

 ---
 CuH
 ---
 Symbolic Z-matrix:
 Charge =  0 Multiplicity = 1

                         Standard orientation:
 ---------------------------------------------------------------------
 Center     Atomic      Atomic             Coordinates (Angstroms)
 Number     Number       Type             X           Y           Z
 ---------------------------------------------------------------------
      1         29           0        0.000000    0.000000    0.033333
      2          1           0        0.000000    0.000000   -0.966667
 ---------------------------------------------------------------------

 SCF Done:  E(ROHF) =  -196.396687680     A.U. after   10 cycles
 E2 =    -0.1173731052D+01 EUMP2 =    -0.19757041873125D+03
 CCSD(T)
 CCSD(T)= -0.19748227322D+03

 The electronic state is 1-SG.
 Alpha  occ. eigenvalues --   -5.31433  -3.45176  -3.41735  -3.41735  -0.63829
 Alpha  occ. eigenvalues --   -0.57246  -0.57246  -0.54457  -0.54457  -0.32420
 Alpha virt. eigenvalues --    0.01001   0.02656   0.02656   0.02841   0.05855
 Alpha virt. eigenvalues --    0.08729   0.08729   0.09210   0.13155   0.13155
 Alpha virt. eigenvalues --    0.13274   0.14065   0.14065   0.19798   0.23190

 Mulliken charges and spin densities:
               1          2
     1  Cu   0.110638   0.000000
     2  H   -0.110638   0.000000
 Sum of Mulliken charges =   0.00000   0.00000

 Dipole moment (field-independent basis, Debye):
    X=              0.0000    Y=              0.0000    Z=              2.8313  Tot=              2.8313
 Quadrupole moment (field-independent basis, Debye-Ang):
   XX=            -14.4905   YY=            -14.4905   ZZ=            -14.2610
   XY=              0.0000   XZ=              0.0000   YZ=              0.0000

 P ROCCSD(T)=(MaxCyc=150, Full)/Gen SCF=(maxcycle=400) Pseudo=Read Inte
 -0=-197.5704187\MP4SDQ=-197.5134193\CCSD=-197.4417968\CCSD(T)=-197.482
 Normal termination of Gaussian 16 at Sun Apr 22 21:45:04 2018.
