 Gaussian 16, Revision A.03,
 Gaussian 16:  ES64L-G16RevA.03 25-Dec-2016

 ----------------------------------------------------------------------
 #P ROCCSD(T)=(MaxCyc=150, Full)/Gen SCF=(maxcycle=400) Pseudo=Read Int
 egral(NoXCTest) Pop=Regular MaxDisk=500GB Guess=Read IOp(5/15=2)
 ----------------------------------------------------------------------

 ---
 CuH
 ---
 Symbolic Z-matrix:
 Charge =  0 Multiplicity = 1

                         Standard orientation:
 ---------------------------------------------------------------------
 Center     Atomic      Atomic             Coordinates (Angstroms)
 Number     Number       Type             X           Y           Z
 ---------------------------------------------------------------------
      1         29           0        0.000000    0.000000    0.033333
      2          1           0        0.000000    0.000000   -0.966667
 ---------------------------------------------------------------------

 SCF Done:  E(ROHF) =  -196.396588332     A.U. after    9 cycles
 E2 =    -0.1198796543D+01 EUMP2 =    -0.19759538487511D+03
 CCSD(T)
 CCSD(T)= -0.19750495111D+03

 The electronic state is 1-SG.
 Alpha  occ. eigenvalues --   -5.31438  -3.45180  -3.41740  -3.41740  -0.63829
 Alpha  occ. eigenvalues --   -0.57250  -0.57250  -0.54458  -0.54458  -0.32420
 Alpha virt. eigenvalues --    0.00867   0.02564   0.02567   0.02567   0.04981
 Alpha virt. eigenvalues --    0.07884   0.08359   0.08359   0.11742   0.11742
 Alpha virt. eigenvalues --    0.11934   0.12628   0.12628   0.14828   0.18935

 Mulliken charges and spin densities:
               1          2
     1  Cu   0.255350   0.000000
     2  H   -0.255350   0.000000
 Sum of Mulliken charges =  -0.00000   0.00000

 Dipole moment (field-independent basis, Debye):
    X=              0.0000    Y=              0.0000    Z=              2.8300  Tot=              2.8300
 Quadrupole moment (field-independent basis, Debye-Ang):
   XX=            -14.4893   YY=            -14.4893   ZZ=            -14.2626
   XY=              0.0000   XZ=              0.0000   YZ=              0.0000

 P ROCCSD(T)=(MaxCyc=150, Full)/Gen SCF=(maxcycle=400) Pseudo=Read Inte
 -0=-197.5953849\MP4SDQ=-197.5348283\CCSD=-197.4637347\CCSD(T)=-197.504
 Normal termination of Gaussian 16 at Sun May  6 11:44:33 2018.
