 Gaussian 16, Revision A.03,
 Gaussian 16:  ES64L-G16RevA.03 25-Dec-2016

 ----------------------------------------------------------------------
 #P ROCCSD(T)=(MaxCyc=150, Full)/Gen SCF=(maxcycle=400) Pseudo=Read Int
 egral(NoXCTest) Pop=Regular MaxDisk=500GB Guess=Read IOp(5/15=2)
 ----------------------------------------------------------------------

 ---
 CuH
 ---
 Symbolic Z-matrix:
 Charge =  0 Multiplicity = 1

                         Standard orientation:
 ---------------------------------------------------------------------
 Center     Atomic      Atomic             Coordinates (Angstroms)
 Number     Number       Type             X           Y           Z
 ---------------------------------------------------------------------
      1         29           0        0.000000    0.000000    0.033333
      2          1           0        0.000000    0.000000   -0.966667
 ---------------------------------------------------------------------

 SCF Done:  E(ROHF) =  -196.393618956     A.U. after   11 cycles
 E2 =    -0.1121715021D+01 EUMP2 =    -0.19751533397676D+03
 CCSD(T)
 CCSD(T)= -0.19742873763D+03

 The electronic state is 1-SG.
 Alpha  occ. eigenvalues --   -5.31450  -3.45201  -3.41758  -3.41758  -0.63828
 Alpha  occ. eigenvalues --   -0.57242  -0.57242  -0.54452  -0.54452  -0.32422
 Alpha virt. eigenvalues --    0.01064   0.02925   0.02925   0.03117   0.06348
 Alpha virt. eigenvalues --    0.09977   0.09977   0.10097   0.17337   0.18897
 Alpha virt. eigenvalues --    0.18897   0.20593   0.20593   0.22256   0.26118

 Mulliken charges and spin densities:
               1          2
     1  Cu   0.244900   0.000000
     2  H   -0.244900   0.000000
 Sum of Mulliken charges =   0.00000   0.00000

 Dipole moment (field-independent basis, Debye):
    X=              0.0000    Y=              0.0000    Z=              2.8368  Tot=              2.8368
 Quadrupole moment (field-independent basis, Debye-Ang):
   XX=            -14.4981   YY=            -14.4981   ZZ=            -14.2524
   XY=              0.0000   XZ=              0.0000   YZ=              0.0000

 P ROCCSD(T)=(MaxCyc=150, Full)/Gen SCF=(maxcycle=400) Pseudo=Read Inte
 -197.515334\MP4SDQ=-197.462776\CCSD=-197.3902477\CCSD(T)=-197.4287376\
 Normal termination of Gaussian 16 at Sun Apr 22 21:27:42 2018.
