 Gaussian 16, Revision A.03,
 Gaussian 16:  ES64L-G16RevA.03 25-Dec-2016

 ----------------------------------------------------------------------
 #P ROCCSD(T)=(maxcyc=150, Full, SaveAmplitudes, ReadAmplitudes)/Gen 5d
  7f SCF=(maxcycles=300, VShift=400) Integral(NoXCTest) MaxDisk=500GB P
 op=Full Pseudo=Read Guess=Read IOp(5/15=2)
 ----------------------------------------------------------------------

 ---
 MnH
 ---
 Symbolic Z-matrix:
 Charge =  0 Multiplicity = 7

                         Standard orientation:
 ---------------------------------------------------------------------
 Center     Atomic      Atomic             Coordinates (Angstroms)
 Number     Number       Type             X           Y           Z
 ---------------------------------------------------------------------
      1         25           0        0.000000    0.000000    0.057692
      2          1           0        0.000000    0.000000   -1.442308
 ---------------------------------------------------------------------

 SCF Done:  E(ROHF) =  -103.776554439     A.U. after   41 cycles
 E2 =    -0.5804235977D+00 EUMP2 =    -0.10435697803674D+03
 CCSD(T)
 CCSD(T)= -0.10437839870D+03

 The electronic state is 7-SG.
 Alpha  occ. eigenvalues --   -4.14050  -2.76226  -2.76201  -2.76201  -0.64819
 Alpha  occ. eigenvalues --   -0.63944  -0.63944  -0.63379  -0.63379  -0.41822
 Alpha  occ. eigenvalues --   -0.25293
 Alpha virt. eigenvalues --    0.01349   0.01349   0.02254   0.03195   0.05831
 Alpha virt. eigenvalues --    0.05831   0.08463   0.08507   0.08507   0.08964
 Alpha virt. eigenvalues --    0.08964   0.09399   0.14124   0.20681   0.22800

 Mulliken charges and spin densities:
               1          2
     1  Mn   0.439172   5.955271
     2  H   -0.439172   0.044729
 Sum of Mulliken charges =  -0.00000   6.00000

 Dipole moment (field-independent basis, Debye):
    X=              0.0000    Y=              0.0000    Z=              0.6173  Tot=              0.6173
 Quadrupole moment (field-independent basis, Debye-Ang):
   XX=            -16.0535   YY=            -16.0535   ZZ=            -25.6863
   XY=              0.0000   XZ=              0.0000   YZ=              0.0000

 \\#P ROCCSD(T)=(maxcyc=150, Full, SaveAmplitudes, ReadAmplitudes)/Gen
 DQ=-104.3615828\CCSD=-104.3623072\CCSD(T)=-104.3783987\RMSD=8.321e-09\
 Normal termination of Gaussian 16 at Thu Apr 19 09:40:19 2018.
