 Gaussian 16, Revision A.03,
 Gaussian 16:  ES64L-G16RevA.03 25-Dec-2016

 ----------------------------------------------------------------------
 #P ROCCSD(T)=(maxcyc=150, Full, SaveAmplitudes, ReadAmplitudes)/Gen 5d
  7f SCF=(maxcycles=300) Integral(NoXCTest) MaxDisk=500GB Pop=Regular P
 seudo=Read Guess=Read
 ----------------------------------------------------------------------

 ---
 ScO
 ---
 Symbolic Z-matrix:
 Charge =  0 Multiplicity = 2

                         Standard orientation:
 ---------------------------------------------------------------------
 Center     Atomic      Atomic             Coordinates (Angstroms)
 Number     Number       Type             X           Y           Z
 ---------------------------------------------------------------------
      1         21           0        0.000000    0.000000    0.358621
      2          8           0        0.000000    0.000000   -0.941379
 ---------------------------------------------------------------------

 SCF Done:  E(ROHF) =  -61.8031825567     A.U. after   17 cycles
 E2 =    -0.6954819841D+00 EUMP2 =    -0.62498664540806D+02
 CCSD(T)
 CCSD(T)= -0.62525082672D+02

 The electronic state is 2-SG.
 Alpha  occ. eigenvalues --   -2.58691  -1.76612  -1.52983  -1.52983  -1.06718
 Alpha  occ. eigenvalues --   -0.57888  -0.57888  -0.47190  -0.19426
 Alpha virt. eigenvalues --    0.00952   0.00952   0.01882   0.02295   0.02810
 Alpha virt. eigenvalues --    0.02810   0.02894   0.02894   0.02894   0.04176
 Alpha virt. eigenvalues --    0.04176   0.06552   0.08074   0.08074   0.08551

 Mulliken charges and spin densities:
               1          2
     1  Sc   0.957372   1.009130
     2  O   -0.957372  -0.009130
 Sum of Mulliken charges =  -0.00000   1.00000

 Dipole moment (field-independent basis, Debye):
    X=              0.0000    Y=              0.0000    Z=              0.1653  Tot=              0.1653
 Quadrupole moment (field-independent basis, Debye-Ang):
   XX=            -22.7637   YY=            -22.7637   ZZ=            -29.5777
   XY=              0.0000   XZ=              0.0000   YZ=              0.0000

 \\#P ROCCSD(T)=(maxcyc=150, Full, SaveAmplitudes, ReadAmplitudes)/Gen
 031826\PMP2-0=-62.4986645\CCSD=-62.4934434\CCSD(T)=-62.5250827\RMSD=1.
 Normal termination of Gaussian 16 at Mon Mar  5 19:32:42 2018.
