 Gaussian 16, Revision A.03,
 Gaussian 16:  ES64L-G16RevA.03 25-Dec-2016

 ----------------------------------------------------------------------
 #P ROCCSD(T)=(MaxCyc=150, Full)/Gen SCF=(maxcycle=400) Pseudo=Read Int
 egral(NoXCTest) Pop=Regular MaxDisk=500GB
 ----------------------------------------------------------------------

 --
 Zn
 --
 Symbolic Z-matrix:
 Charge =  0 Multiplicity = 1

                         Standard orientation:
 ---------------------------------------------------------------------
 Center     Atomic      Atomic             Coordinates (Angstroms)
 Number     Number       Type             X           Y           Z
 ---------------------------------------------------------------------
      1         30           0        0.000000    0.000000    0.000000
 ---------------------------------------------------------------------

 SCF Done:  E(ROHF) =  -226.022850046     A.U. after    9 cycles
 E2 =    -0.1124009098D+01 EUMP2 =    -0.22714685914367D+03
 CCSD(T)
 CCSD(T)= -0.22709695650D+03

 The electronic state is 1-A1G.
 Alpha  occ. eigenvalues --   -5.54313  -3.83557  -3.83557  -3.83557  -0.75691
 Alpha  occ. eigenvalues --   -0.75691  -0.75691  -0.75691  -0.75691  -0.29849
 Alpha virt. eigenvalues --    0.02382   0.02382   0.02382   0.02658   0.07367
 Alpha virt. eigenvalues --    0.07367   0.07367   0.13200   0.16242   0.16242
 Alpha virt. eigenvalues --    0.16242   0.16242   0.16242   0.22900   0.22900

 Mulliken charges and spin densities:
               1          2
     1  Zn  -0.000000   0.000000
 Sum of Mulliken charges =  -0.00000   0.00000

 Dipole moment (field-independent basis, Debye):
    X=              0.0000    Y=              0.0000    Z=              0.0000  Tot=              0.0000
 Quadrupole moment (field-independent basis, Debye-Ang):
   XX=            -15.1323   YY=            -15.1323   ZZ=            -15.1323
   XY=              0.0000   XZ=              0.0000   YZ=             -0.0000

 ROCCSD(T)=(MaxCyc=150, Full)/Gen SCF=(maxcycle=400) Pseudo=Read Integr
 27.0661409\CCSD(T)=-227.0969565\RMSD=1.677e-09\PG=OH [O(Zn1)]\\@
 Normal termination of Gaussian 16 at Sat May  5 22:01:45 2018.
