 Gaussian 16, Revision A.03,
 Gaussian 16:  ES64L-G16RevA.03 25-Dec-2016

 ----------------------------------------------------------------------
 #P ROCCSD(T)=(MaxCyc=150, Full)/Gen SCF=(maxcycle=400) Pseudo=Read Int
 egral(NoXCTest) Pop=Regular MaxDisk=500GB
 ----------------------------------------------------------------------

 --
 Zn
 --
 Symbolic Z-matrix:
 Charge =  0 Multiplicity = 1

                         Standard orientation:
 ---------------------------------------------------------------------
 Center     Atomic      Atomic             Coordinates (Angstroms)
 Number     Number       Type             X           Y           Z
 ---------------------------------------------------------------------
      1         30           0        0.000000    0.000000    0.000000
 ---------------------------------------------------------------------

 SCF Done:  E(ROHF) =  -226.022559986     A.U. after    9 cycles
 E2 =    -0.1097742437D+01 EUMP2 =    -0.22712030242309D+03
 CCSD(T)
 CCSD(T)= -0.22707245059D+03

 The electronic state is 1-A1G.
 Alpha  occ. eigenvalues --   -5.54299  -3.83557  -3.83557  -3.83557  -0.75691
 Alpha  occ. eigenvalues --   -0.75691  -0.75691  -0.75691  -0.75691  -0.29848
 Alpha virt. eigenvalues --    0.02474   0.02474   0.02474   0.03246   0.07831
 Alpha virt. eigenvalues --    0.07831   0.07831   0.17590   0.19091   0.19091
 Alpha virt. eigenvalues --    0.19091   0.19091   0.19091   0.25482   0.25482

 Mulliken charges and spin densities:
               1          2
     1  Zn  -0.000000   0.000000
 Sum of Mulliken charges =  -0.00000   0.00000

 Dipole moment (field-independent basis, Debye):
    X=              0.0000    Y=              0.0000    Z=              0.0000  Tot=              0.0000
 Quadrupole moment (field-independent basis, Debye-Ang):
   XX=            -15.1335   YY=            -15.1335   ZZ=            -15.1335
   XY=              0.0000   XZ=              0.0000   YZ=             -0.0000

 ROCCSD(T)=(MaxCyc=150, Full)/Gen SCF=(maxcycle=400) Pseudo=Read Integr
 227.0423367\CCSD(T)=-227.0724506\RMSD=3.079e-09\PG=OH [O(Zn1)]\\@
 Normal termination of Gaussian 16 at Thu Mar 29 06:42:20 2018.
