 Gaussian 16, Revision A.03,
 Gaussian 16:  ES64L-G16RevA.03 25-Dec-2016

 ----------------------------------------------------------------------
 #P ROCCSD(T)=(MaxCyc=150, Full)/Gen SCF=(maxcycle=400) Pseudo=Read Int
 egral(NoXCTest) Pop=Regular MaxDisk=500GB
 ----------------------------------------------------------------------

 --
 Zn
 --
 Symbolic Z-matrix:
 Charge =  0 Multiplicity = 1

                         Standard orientation:
 ---------------------------------------------------------------------
 Center     Atomic      Atomic             Coordinates (Angstroms)
 Number     Number       Type             X           Y           Z
 ---------------------------------------------------------------------
      1         30           0        0.000000    0.000000    0.000000
 ---------------------------------------------------------------------

 SCF Done:  E(ROHF) =  -226.021164889     A.U. after    9 cycles
 E2 =    -0.1043741658D+01 EUMP2 =    -0.22706490654732D+03
 CCSD(T)
 CCSD(T)= -0.22701780192D+03

 The electronic state is 1-A1G.
 Alpha  occ. eigenvalues --   -5.54327  -3.83571  -3.83571  -3.83571  -0.75685
 Alpha  occ. eigenvalues --   -0.75685  -0.75685  -0.75685  -0.75685  -0.29855
 Alpha virt. eigenvalues --    0.02659   0.02659   0.02659   0.03352   0.08886
 Alpha virt. eigenvalues --    0.08886   0.08886   0.18045   0.26459   0.26459
 Alpha virt. eigenvalues --    0.26459   0.26459   0.26459   0.31992   0.31992

 Mulliken charges and spin densities:
               1          2
     1  Zn   0.000000   0.000000
 Sum of Mulliken charges =   0.00000   0.00000

 Dipole moment (field-independent basis, Debye):
    X=              0.0000    Y=              0.0000    Z=              0.0000  Tot=              0.0000
 Quadrupole moment (field-independent basis, Debye-Ang):
   XX=            -15.1339   YY=            -15.1339   ZZ=            -15.1339
   XY=             -0.0000   XZ=             -0.0000   YZ=              0.0000

 ROCCSD(T)=(MaxCyc=150, Full)/Gen SCF=(maxcycle=400) Pseudo=Read Integr
 SD=-226.9895625\CCSD(T)=-227.0178019\RMSD=4.152e-09\PG=OH [O(Zn1)]\\@
 Normal termination of Gaussian 16 at Thu Mar 29 06:15:26 2018.
