 Gaussian 16, Revision A.03,
 Gaussian 16:  ES64L-G16RevA.03 25-Dec-2016

 ----------------------------------------------------------------------
 #P ROCCSD(T)=(MaxCyc=150, Full)/Gen SCF=(maxcycle=400) Integral(DKHSO,
  NoXCTest) Pop=Regular MaxDisk=500GB Guess=Read IOp(5/15=2)
 ----------------------------------------------------------------------

 ---
 CuO
 ---
 Symbolic Z-matrix:
 Charge =  0 Multiplicity = 2

                         Standard orientation:
 ---------------------------------------------------------------------
 Center     Atomic      Atomic             Coordinates (Angstroms)
 Number     Number       Type             X           Y           Z
 ---------------------------------------------------------------------
      1         29           0        0.000000    0.000000    0.281081
      2          8           0        0.000000    0.000000   -1.018919
 ---------------------------------------------------------------------

 SCF Done:  E(ROHF) =  -1727.81656760     A.U. after   21 cycles
 E2 =    -0.1837380258D+01 EUMP2 =    -0.17296539478583D+04
 CCSD(T)
 CCSD(T)= -0.17295473484D+04

 Unable to determine electronic state:  an orbital has unidentified symmetry.
 Alpha  occ. eigenvalues -- -332.62349 -41.82715 -35.96842 -35.96385 -35.95499
 Alpha  occ. eigenvalues --  -20.59301  -5.33214  -3.56782  -3.52266  -3.50532
 Alpha  occ. eigenvalues --   -1.33693  -0.77035  -0.73621  -0.67618  -0.61767
 Alpha  occ. eigenvalues --   -0.61731  -0.49691  -0.44617  -0.35909
 Alpha virt. eigenvalues --    0.00333   0.03107   0.03274   0.03837   0.05584
 Alpha virt. eigenvalues --    0.10861   0.11384   0.13529   0.19104   0.20044
 Alpha virt. eigenvalues --    0.20059   0.20986   0.21770   0.21900   0.25917

 Mulliken charges and spin densities:
               1          2
     1  Cu   0.849637   0.163701
     2  O   -0.849637   0.836299
 Sum of Mulliken charges =  -0.00000   1.00000

 Dipole moment (field-independent basis, Debye):
    X=              0.0000    Y=              0.0000    Z=              3.7584  Tot=              3.7584
 Quadrupole moment (field-independent basis, Debye-Ang):
   XX=            -18.8205   YY=            -17.4100   ZZ=            -18.4114
   XY=              0.0000   XZ=              0.0000   YZ=              0.0000

 \\#P ROCCSD(T)=(MaxCyc=150, Full)/Gen SCF=(maxcycle=400) Integral(DKHS
 .6539479\MP4SDQ=-1729.5865433\CCSD=-1729.4923573\CCSD(T)=-1729.5473484
 Normal termination of Gaussian 16 at Sat Mar 24 00:13:05 2018.
