 Gaussian 16, Revision A.03,
 Gaussian 16:  ES64L-G16RevA.03 25-Dec-2016

 ----------------------------------------------------------------------
 #P ROCCSD(T)=(MaxCyc=150, Full)/Gen SCF=(maxcycle=400) Integral(DKHSO,
  NoXCTest) Pop=Regular MaxDisk=500GB Guess=Read IOp(5/15=2)
 ----------------------------------------------------------------------

 ---
 CuO
 ---
 Symbolic Z-matrix:
 Charge =  0 Multiplicity = 2

                         Standard orientation:
 ---------------------------------------------------------------------
 Center     Atomic      Atomic             Coordinates (Angstroms)
 Number     Number       Type             X           Y           Z
 ---------------------------------------------------------------------
      1         29           0        0.000000    0.000000    0.281081
      2          8           0        0.000000    0.000000   -1.018919
 ---------------------------------------------------------------------

 SCF Done:  E(ROHF) =  -1727.82352687     A.U. after   21 cycles
 E2 =    -0.1922874456D+01 EUMP2 =    -0.17297464013260D+04
 CCSD(T)
 CCSD(T)= -0.17296374397D+04

 Unable to determine electronic state:  an orbital has unidentified symmetry.
 Alpha  occ. eigenvalues -- -332.62345 -41.82689 -35.96811 -35.96354 -35.95472
 Alpha  occ. eigenvalues --  -20.59141  -5.33189  -3.56745  -3.52241  -3.50515
 Alpha  occ. eigenvalues --   -1.33615  -0.77041  -0.73629  -0.67600  -0.61764
 Alpha  occ. eigenvalues --   -0.61728  -0.49698  -0.44627  -0.35888
 Alpha virt. eigenvalues --    0.00300   0.02750   0.02883   0.03482   0.05211
 Alpha virt. eigenvalues --    0.09399   0.09819   0.12123   0.13811   0.13820
 Alpha virt. eigenvalues --    0.13914   0.14215   0.14255   0.19167   0.21942

 Mulliken charges and spin densities:
               1          2
     1  Cu   0.611689   0.177398
     2  O   -0.611689   0.822602
 Sum of Mulliken charges =  -0.00000   1.00000

 Dipole moment (field-independent basis, Debye):
    X=              0.0000    Y=             -0.0000    Z=              3.7457  Tot=              3.7457
 Quadrupole moment (field-independent basis, Debye-Ang):
   XX=            -18.7966   YY=            -17.4013   ZZ=            -18.4178
   XY=              0.0000   XZ=              0.0000   YZ=             -0.0000

 \\#P ROCCSD(T)=(MaxCyc=150, Full)/Gen SCF=(maxcycle=400) Integral(DKHS
 7464013\MP4SDQ=-1729.6723382\CCSD=-1729.5795361\CCSD(T)=-1729.6374397\
 Normal termination of Gaussian 16 at Sat Mar 24 08:39:57 2018.
