 Gaussian 16, Revision A.03,
 Gaussian 16:  ES64L-G16RevA.03 25-Dec-2016

 ----------------------------------------------------------------------
 #P ROCCSD(T)=(maxcyc=150, Full, SaveAmplitudes, ReadAmplitudes)/Gen 5d
  7f SCF=(maxcycles=300) Integral(NoXCTest) MaxDisk=500GB Pop=Regular P
 seudo=Read Guess=Read
 ----------------------------------------------------------------------

 ---
 ScO
 ---
 Symbolic Z-matrix:
 Charge =  0 Multiplicity = 2

                         Standard orientation:
 ---------------------------------------------------------------------
 Center     Atomic      Atomic             Coordinates (Angstroms)
 Number     Number       Type             X           Y           Z
 ---------------------------------------------------------------------
      1         21           0        0.000000    0.000000    0.468966
      2          8           0        0.000000    0.000000   -1.231034
 ---------------------------------------------------------------------

 SCF Done:  E(ROHF) =  -61.9337542471     A.U. after   15 cycles
 E2 =    -0.7107269001D+00 EUMP2 =    -0.62644481147245D+02
 CCSD(T)
 CCSD(T)= -0.62671939777D+02

 The electronic state is 2-SG.
 Alpha  occ. eigenvalues --   -2.65592  -1.66771  -1.63833  -1.63833  -1.12627
 Alpha  occ. eigenvalues --   -0.42733  -0.41140  -0.41140  -0.25223
 Alpha virt. eigenvalues --   -0.00058  -0.00058   0.01319   0.02034   0.02700
 Alpha virt. eigenvalues --    0.02700   0.02974   0.02974   0.03225   0.03225
 Alpha virt. eigenvalues --    0.03450   0.04606   0.06756   0.06756   0.09310

 Mulliken charges and spin densities:
               1          2
     1  Sc   1.267728   0.987783
     2  O   -1.267728   0.012217
 Sum of Mulliken charges =  -0.00000   1.00000

 Dipole moment (field-independent basis, Debye):
    X=              0.0000    Y=              0.0000    Z=              4.8291  Tot=              4.8291
 Quadrupole moment (field-independent basis, Debye-Ang):
   XX=            -21.8669   YY=            -21.8669   ZZ=            -32.6467
   XY=              0.0000   XZ=              0.0000   YZ=              0.0000

 \\#P ROCCSD(T)=(maxcyc=150, Full, SaveAmplitudes, ReadAmplitudes)/Gen
 337542\PMP2-0=-62.6444811\CCSD=-62.6295878\CCSD(T)=-62.6719398\RMSD=5.
 Normal termination of Gaussian 16 at Wed Feb 21 05:12:22 2018.
