 Gaussian 16, Revision A.03,
 Gaussian 16:  ES64L-G16RevA.03 25-Dec-2016

 ----------------------------------------------------------------------
 #P ROCCSD(T)=(MaxCyc=150, Full)/Gen SCF=(maxcycle=400) Pseudo=Read Int
 egral(NoXCTest) Pop=Regular MaxDisk=500GB Guess=Read IOp(5/15=2)
 ----------------------------------------------------------------------

 ---
 ZnO
 ---
 Symbolic Z-matrix:
 Charge =  0 Multiplicity = 1

                         Standard orientation:
 ---------------------------------------------------------------------
 Center     Atomic      Atomic             Coordinates (Angstroms)
 Number     Number       Type             X           Y           Z
 ---------------------------------------------------------------------
      1         30           0        0.000000    0.000000    0.315789
      2          8           0        0.000000    0.000000   -1.184211
 ---------------------------------------------------------------------

 SCF Done:  E(ROHF) =  -241.625586295     A.U. after   11 cycles
 E2 =    -0.1411122526D+01 EUMP2 =    -0.24303670882112D+03
 CCSD(T)
 CCSD(T)= -0.24296654645D+03

 The electronic state is 1-SG.
 Alpha  occ. eigenvalues --   -5.92818  -4.00406  -3.99600  -3.99600  -1.20785
 Alpha  occ. eigenvalues --   -0.83942  -0.83942  -0.82201  -0.82201  -0.79349
 Alpha  occ. eigenvalues --   -0.39930  -0.39930  -0.39181
 Alpha virt. eigenvalues --   -0.04286   0.02566   0.02566   0.02601   0.04188
 Alpha virt. eigenvalues --    0.08272   0.08272   0.12159   0.16615   0.17851
 Alpha virt. eigenvalues --    0.17960   0.17960   0.20460   0.20460   0.23102

 Mulliken charges and spin densities:
               1          2
     1  Zn   1.054726   0.000000
     2  O   -1.054726   0.000000
 Sum of Mulliken charges =   0.00000   0.00000

 Dipole moment (field-independent basis, Debye):
    X=              0.0000    Y=              0.0000    Z=              6.9757  Tot=              6.9757
 Quadrupole moment (field-independent basis, Debye-Ang):
   XX=            -17.8490   YY=            -17.8490   ZZ=            -20.6753
   XY=              0.0000   XZ=              0.0000   YZ=              0.0000

 P ROCCSD(T)=(MaxCyc=150, Full)/Gen SCF=(maxcycle=400) Pseudo=Read Inte
 2-0=-243.0367088\MP4SDQ=-242.9645017\CCSD=-242.915427\CCSD(T)=-242.966
 Normal termination of Gaussian 16 at Wed Mar 28 02:31:17 2018.
