 Gaussian 16, Revision A.03,
 Gaussian 16:  ES64L-G16RevA.03 25-Dec-2016

 ----------------------------------------------------------------------
 #P ROCCSD(T)=(MaxCyc=150, Full)/Gen SCF=(maxcycle=400) Pseudo=Read Int
 egral(NoXCTest) Pop=Regular MaxDisk=500GB Guess=Read IOp(5/15=2)
 ----------------------------------------------------------------------

 ---
 ZnO
 ---
 Symbolic Z-matrix:
 Charge =  0 Multiplicity = 1

                         Standard orientation:
 ---------------------------------------------------------------------
 Center     Atomic      Atomic             Coordinates (Angstroms)
 Number     Number       Type             X           Y           Z
 ---------------------------------------------------------------------
      1         30           0        0.000000    0.000000    0.315789
      2          8           0        0.000000    0.000000   -1.184211
 ---------------------------------------------------------------------

 SCF Done:  E(ROHF) =  -241.621897487     A.U. after    1 cycles
 E2 =    -0.1342753383D+01 EUMP2 =    -0.24296465086956D+03
 CCSD(T)
 CCSD(T)= -0.24289695720D+03

 The electronic state is 1-SG.
 Alpha  occ. eigenvalues --   -5.92833  -4.00435  -3.99619  -3.99619  -1.20847
 Alpha  occ. eigenvalues --   -0.83954  -0.83954  -0.82209  -0.82209  -0.79370
 Alpha  occ. eigenvalues --   -0.39922  -0.39922  -0.39197
 Alpha virt. eigenvalues --   -0.04297   0.02838   0.02843   0.02843   0.04651
 Alpha virt. eigenvalues --    0.09522   0.09522   0.13491   0.17958   0.21970
 Alpha virt. eigenvalues --    0.23647   0.23647   0.24901   0.24901   0.30223

 Mulliken charges and spin densities:
               1          2
     1  Zn   1.221100   0.000000
     2  O   -1.221100   0.000000
 Sum of Mulliken charges =   0.00000   0.00000

 Dipole moment (field-independent basis, Debye):
    X=              0.0000    Y=              0.0000    Z=              6.9889  Tot=              6.9889
 Quadrupole moment (field-independent basis, Debye-Ang):
   XX=            -17.8614   YY=            -17.8614   ZZ=            -20.6799
   XY=              0.0000   XZ=              0.0000   YZ=              0.0000

 P ROCCSD(T)=(MaxCyc=150, Full)/Gen SCF=(maxcycle=400) Pseudo=Read Inte
 -0=-242.9646509\MP4SDQ=-242.8985076\CCSD=-242.8484158\CCSD(T)=-242.896
 Normal termination of Gaussian 16 at Wed Mar 28 00:16:17 2018.
