 Gaussian 16, Revision A.03,
 Gaussian 16:  ES64L-G16RevA.03 25-Dec-2016

 ----------------------------------------------------------------------
 #P ROCCSD(T)=(maxcyc=150, Full, SaveAmplitudes, ReadAmplitudes)/Gen 5d
  7f SCF=(maxcycles=300) Integral(NoXCTest) MaxDisk=500GB Pop=Regular P
 seudo=Read Guess=Read IOp(5/15=2)
 ----------------------------------------------------------------------

 ---
 ScO
 ---
 Symbolic Z-matrix:
 Charge =  0 Multiplicity = 2

                         Standard orientation:
 ---------------------------------------------------------------------
 Center     Atomic      Atomic             Coordinates (Angstroms)
 Number     Number       Type             X           Y           Z
 ---------------------------------------------------------------------
      1         21           0        0.000000    0.000000    0.441379
      2          8           0        0.000000    0.000000   -1.158621
 ---------------------------------------------------------------------

 SCF Done:  E(ROHF) =  -61.9653717585     A.U. after   17 cycles
 E2 =    -0.6813892048D+00 EUMP2 =    -0.62646760963283D+02
 CCSD(T)
 CCSD(T)= -0.62675396494D+02

 The electronic state is 2-SG.
 Alpha  occ. eigenvalues --   -2.63835  -1.66480  -1.60464  -1.60464  -1.12595
 Alpha  occ. eigenvalues --   -0.44211  -0.44211  -0.43917  -0.23978
 Alpha virt. eigenvalues --    0.00318   0.00318   0.01694   0.02292   0.03650
 Alpha virt. eigenvalues --    0.03650   0.03754   0.03754   0.04199   0.04199
 Alpha virt. eigenvalues --    0.04257   0.06026   0.08997   0.08997   0.10730

 Mulliken charges and spin densities:
               1          2
     1  Sc   1.274484   0.975020
     2  O   -1.274484   0.024980
 Sum of Mulliken charges =   0.00000   1.00000

 Dipole moment (field-independent basis, Debye):
    X=              0.0000    Y=              0.0000    Z=              3.8577  Tot=              3.8577
 Quadrupole moment (field-independent basis, Debye-Ang):
   XX=            -21.8709   YY=            -21.8709   ZZ=            -31.7356
   XY=              0.0000   XZ=              0.0000   YZ=              0.0000

 \\#P ROCCSD(T)=(maxcyc=150, Full, SaveAmplitudes, ReadAmplitudes)/Gen
 \CCSD=-62.6373639\CCSD(T)=-62.6753965\RMSD=1.227e-09\PG=C*V [C*(O1Sc1)
 Normal termination of Gaussian 16 at Wed Mar  7 11:44:58 2018.
