 Gaussian 16, Revision A.03,
 Gaussian 16:  ES64L-G16RevA.03 25-Dec-2016

 ----------------------------------------------------------------------
 #P ROCCSD(T)=(maxcyc=150, Full, SaveAmplitudes, ReadAmplitudes)/Gen 5d
  7f SCF=(maxcycles=300, VShift=400) Integral(NoXCTest) MaxDisk=500GB P
 op=Full Pseudo=Read Guess=Read IOp(5/15=2)
 ----------------------------------------------------------------------

 ---
 TiO
 ---
 Symbolic Z-matrix:
 Charge =  0 Multiplicity = 3

                         Standard orientation:
 ---------------------------------------------------------------------
 Center     Atomic      Atomic             Coordinates (Angstroms)
 Number     Number       Type             X           Y           Z
 ---------------------------------------------------------------------
      1         22           0        0.000000    0.000000    0.320000
      2          8           0        0.000000    0.000000   -0.880000
 ---------------------------------------------------------------------

 SCF Done:  E(ROHF) =  -73.0925489182     A.U. after   60 cycles
 E2 =    -0.7218038137D+00 EUMP2 =    -0.73814352731867D+02
 CCSD(T)
 CCSD(T)= -0.73840593871D+02

 Unable to determine electronic state:  an orbital has unidentified symmetry.
 Alpha  occ. eigenvalues --   -2.95235  -2.01485  -1.80492  -1.80492  -1.12138
 Alpha  occ. eigenvalues --   -0.65754  -0.65754  -0.54593  -0.32917  -0.19928
 Alpha virt. eigenvalues --    0.01264   0.01264   0.02087   0.02820   0.04912
 Alpha virt. eigenvalues --    0.04912   0.05027   0.05197   0.05361   0.05753
 Alpha virt. eigenvalues --    0.05753   0.08494   0.12408   0.14288   0.14840

 Mulliken charges and spin densities:
               1          2
     1  Ti   0.570870   2.060793
     2  O   -0.570870  -0.060793
 Sum of Mulliken charges =  -0.00000   2.00000

 Dipole moment (field-independent basis, Debye):
    X=              0.0000    Y=              0.0000    Z=             -0.7435  Tot=              0.7435
 Quadrupole moment (field-independent basis, Debye-Ang):
   XX=            -22.5730   YY=            -22.5730   ZZ=            -26.5649
   XY=              0.0000   XZ=              0.0000   YZ=              0.0000

 \\#P ROCCSD(T)=(maxcyc=150, Full, SaveAmplitudes, ReadAmplitudes)/Gen
 \CCSD=-73.8092341\CCSD(T)=-73.8405939\RMSD=5.184e-09\PG=C*V [C*(O1Ti1)
 Normal termination of Gaussian 16 at Sat Mar 31 17:04:10 2018.
