 Gaussian 16, Revision A.03,
 Gaussian 16:  ES64L-G16RevA.03 25-Dec-2016

 ----------------------------------------------------------------------
 #P ROCCSD(T)=(maxcyc=150, Full, SaveAmplitudes, ReadAmplitudes)/Gen 5d
  7f SCF=(maxcycles=300) Integral(NoXCTest) MaxDisk=500GB Pop=Regular P
 seudo=Read Guess=Read
 ----------------------------------------------------------------------

 ---
 ScO
 ---
 Symbolic Z-matrix:
 Charge =  0 Multiplicity = 2

                         Standard orientation:
 ---------------------------------------------------------------------
 Center     Atomic      Atomic             Coordinates (Angstroms)
 Number     Number       Type             X           Y           Z
 ---------------------------------------------------------------------
      1         21           0        0.000000    0.000000    0.386207
      2          8           0        0.000000    0.000000   -1.013793
 ---------------------------------------------------------------------

 SCF Done:  E(ROHF) =  -62.0144951619     A.U. after   17 cycles
 E2 =    -0.7078975214D+00 EUMP2 =    -0.62722392683274D+02
 CCSD(T)
 CCSD(T)= -0.62746157084D+02

 The electronic state is 2-SG.
 Alpha  occ. eigenvalues --   -2.62110  -1.71497  -1.55246  -1.55246  -1.08597
 Alpha  occ. eigenvalues --   -0.52294  -0.52294  -0.46025  -0.21144
 Alpha virt. eigenvalues --    0.00822   0.00822   0.02006   0.02047   0.02791
 Alpha virt. eigenvalues --    0.02791   0.02945   0.02945   0.02979   0.03939
 Alpha virt. eigenvalues --    0.03939   0.06231   0.07914   0.07914   0.08912

 Mulliken charges and spin densities:
               1          2
     1  Sc   1.104999   1.001086
     2  O   -1.104999  -0.001086
 Sum of Mulliken charges =  -0.00000   1.00000

 Dipole moment (field-independent basis, Debye):
    X=              0.0000    Y=              0.0000    Z=              1.5961  Tot=              1.5961
 Quadrupole moment (field-independent basis, Debye-Ang):
   XX=            -22.1923   YY=            -22.1923   ZZ=            -30.0532
   XY=              0.0000   XZ=              0.0000   YZ=              0.0000

 \\#P ROCCSD(T)=(maxcyc=150, Full, SaveAmplitudes, ReadAmplitudes)/Gen
 144952\PMP2-0=-62.7223927\CCSD=-62.7114869\CCSD(T)=-62.7461571\RMSD=4.
 Normal termination of Gaussian 16 at Wed Feb 21 00:57:13 2018.
