 Gaussian 16, Revision A.03,
 Gaussian 16:  ES64L-G16RevA.03 25-Dec-2016

 ----------------------------------------------------------------------
 #P ROCCSD(T)=(maxcyc=150, Full)/Gen 5d 7f SCF=(maxcycles=300) Integral
 (NoXCTest) MaxDisk=500GB Pop=Regular Pseudo=Read Guess=Read
 ----------------------------------------------------------------------

 ---
 CrH
 ---
 Symbolic Z-matrix:
 Charge =  0 Multiplicity = 6

                         Standard orientation:
 ---------------------------------------------------------------------
 Center     Atomic      Atomic             Coordinates (Angstroms)
 Number     Number       Type             X           Y           Z
 ---------------------------------------------------------------------
      1         24           0        0.000000    0.000000    0.072000
      2          1           0        0.000000    0.000000   -1.728000
 ---------------------------------------------------------------------

 SCF Done:  E(ROHF) =  -86.6945127270     A.U. after   22 cycles
 E2 =    -0.5627782140D+00 EUMP2 =    -0.87257290940983D+02
 CCSD(T)
 CCSD(T)= -0.87304951262D+02

 The electronic state is 6-SG.
 Alpha  occ. eigenvalues --   -3.73366  -2.48867  -2.48867  -2.44077  -0.55758
 Alpha  occ. eigenvalues --   -0.55758  -0.52461  -0.52461  -0.39626  -0.26318
 Alpha virt. eigenvalues --    0.01140   0.01140   0.01825   0.02271   0.04335
 Alpha virt. eigenvalues --    0.04730   0.04730   0.04924   0.04924   0.05224
 Alpha virt. eigenvalues --    0.05224   0.06297   0.08540   0.11341   0.15182

 Mulliken charges and spin densities:
               1          2
     1  Cr   0.349676   4.972496
     2  H   -0.349676   0.027504
 Sum of Mulliken charges =  -0.00000   5.00000

 Dipole moment (field-independent basis, Debye):
    X=              0.0000    Y=              0.0000    Z=              2.4288  Tot=              2.4288
 Quadrupole moment (field-independent basis, Debye-Ang):
   XX=            -17.0995   YY=            -17.0995   ZZ=            -25.0613
   XY=              0.0000   XZ=              0.0000   YZ=              0.0000

 \\#P ROCCSD(T)=(maxcyc=150, Full)/Gen 5d 7f SCF=(maxcycles=300) Integr
 7.2572909\MP4SDQ=-87.2686368\CCSD=-87.2877521\CCSD(T)=-87.3049513\RMSD
 Normal termination of Gaussian 16 at Tue Feb 13 11:22:29 2018.
