 Gaussian 16, Revision A.03,
 Gaussian 16:  ES64L-G16RevA.03 25-Dec-2016

 ----------------------------------------------------------------------
 #P ROCCSD(T)=(maxcyc=150, Full)/Gen 5d 7f SCF=(maxcycles=300) Integral
 (NoXCTest) MaxDisk=500GB Pop=Regular Pseudo=Read Guess=Read
 ----------------------------------------------------------------------

 ---
 MnH
 ---
 Symbolic Z-matrix:
 Charge =  0 Multiplicity = 7

                         Standard orientation:
 ---------------------------------------------------------------------
 Center     Atomic      Atomic             Coordinates (Angstroms)
 Number     Number       Type             X           Y           Z
 ---------------------------------------------------------------------
      1         25           0        0.000000    0.000000    0.061538
      2          1           0        0.000000    0.000000   -1.538462
 ---------------------------------------------------------------------

 SCF Done:  E(ROHF) =  -104.055749847     A.U. after   21 cycles
 E2 =    -0.5991606217D+00 EUMP2 =    -0.10465491046907D+03
 CCSD(T)
 CCSD(T)= -0.10467624328D+03

 The electronic state is 7-SG.
 Alpha  occ. eigenvalues --   -4.15933  -2.80605  -2.80605  -2.80471  -0.64317
 Alpha  occ. eigenvalues --   -0.64094  -0.64094  -0.63431  -0.63431  -0.41411
 Alpha  occ. eigenvalues --   -0.25780
 Alpha virt. eigenvalues --    0.01233   0.01233   0.02113   0.02966   0.05088
 Alpha virt. eigenvalues --    0.05088   0.05666   0.05816   0.05816   0.06195
 Alpha virt. eigenvalues --    0.06195   0.08874   0.13636   0.14275   0.18045

 Mulliken charges and spin densities:
               1          2
     1  Mn   0.364567   5.946543
     2  H   -0.364567   0.053457
 Sum of Mulliken charges =  -0.00000   6.00000

 Dipole moment (field-independent basis, Debye):
    X=              0.0000    Y=              0.0000    Z=              0.9492  Tot=              0.9492
 Quadrupole moment (field-independent basis, Debye-Ang):
   XX=            -16.0928   YY=            -16.0928   ZZ=            -25.9628
   XY=              0.0000   XZ=              0.0000   YZ=              0.0000

 \\#P ROCCSD(T)=(maxcyc=150, Full)/Gen 5d 7f SCF=(maxcycles=300) Integr
 0=-104.6549105\MP4SDQ=-104.6588691\CCSD=-104.6597642\CCSD(T)=-104.6762
 Normal termination of Gaussian 16 at Tue Feb 13 05:18:09 2018.
