 Gaussian 16, Revision A.03,
 Gaussian 16:  ES64L-G16RevA.03 25-Dec-2016

 ----------------------------------------------------------------------
 #P ROCCSD(T)=(maxcyc=150, Full, SaveAmplitudes, ReadAmplitudes)/Gen 5d
  7f SCF=(maxcycles=300) Integral(NoXCTest) MaxDisk=500GB Pop=Regular P
 seudo=Read Guess=Read
 ----------------------------------------------------------------------

 ---
 CrO
 ---
 Symbolic Z-matrix:
 Charge =  0 Multiplicity = 5

                         Standard orientation:
 ---------------------------------------------------------------------
 Center     Atomic      Atomic             Coordinates (Angstroms)
 Number     Number       Type             X           Y           Z
 ---------------------------------------------------------------------
      1         24           0        0.000000    0.000000    0.375000
      2          8           0        0.000000    0.000000   -1.125000
 ---------------------------------------------------------------------

 SCF Done:  E(ROHF) =  -101.875441032     A.U. after   22 cycles
 E2 =    -0.9149651684D+00 EUMP2 =    -0.10279040619993D+03
 CCSD(T)
 CCSD(T)= -0.10281040039D+03

 Unable to determine electronic state:  an orbital has unidentified symmetry.
 Alpha  occ. eigenvalues --   -3.78395  -2.52727  -2.48702  -2.45960  -1.21298
 Alpha  occ. eigenvalues --   -0.63571  -0.57638  -0.56144  -0.50518  -0.48149
 Alpha  occ. eigenvalues --   -0.39788  -0.29978
 Alpha virt. eigenvalues --    0.00712   0.01040   0.01768   0.02765   0.04209
 Alpha virt. eigenvalues --    0.04458   0.05338   0.05339   0.05476   0.05771
 Alpha virt. eigenvalues --    0.06081   0.06481   0.10611   0.13260   0.13289

 Mulliken charges and spin densities:
               1          2
     1  Cr   1.051307   3.899832
     2  O   -1.051307   0.100168
 Sum of Mulliken charges =  -0.00000   4.00000

 Dipole moment (field-independent basis, Debye):
    X=              0.0000    Y=              0.0000    Z=              4.4186  Tot=              4.4186
 Quadrupole moment (field-independent basis, Debye-Ang):
   XX=            -20.8534   YY=            -19.7578   ZZ=            -24.4914
   XY=              0.0000   XZ=              0.0000   YZ=              0.0000

 \\#P ROCCSD(T)=(maxcyc=150, Full, SaveAmplitudes, ReadAmplitudes)/Gen
 2-0=-102.7904062\CCSD=-102.7607976\CCSD(T)=-102.8104004\RMSD=4.396e-09
 Normal termination of Gaussian 16 at Tue Mar 13 05:49:25 2018.
