 Gaussian 16, Revision A.03,
 Gaussian 16:  ES64L-G16RevA.03 25-Dec-2016

 ----------------------------------------------------------------------
 #P ROCCSD(T)=(maxcyc=150, Full, SaveAmplitudes, ReadAmplitudes)/Gen 5d
  7f SCF=(maxcycles=300) Integral(NoXCTest) MaxDisk=500GB Pop=Regular P
 seudo=Read Guess=Read IOp(5/15=2)
 ----------------------------------------------------------------------

 ---
 TiO
 ---
 Symbolic Z-matrix:
 Charge =  0 Multiplicity = 3

                         Standard orientation:
 ---------------------------------------------------------------------
 Center     Atomic      Atomic             Coordinates (Angstroms)
 Number     Number       Type             X           Y           Z
 ---------------------------------------------------------------------
      1         22           0        0.000000    0.000000    0.506667
      2          8           0        0.000000    0.000000   -1.393333
 ---------------------------------------------------------------------

 SCF Done:  E(ROHF) =  -73.4667790964     A.U. after   23 cycles
 E2 =    -0.7622862890D+00 EUMP2 =    -0.74229065385398D+02
 CCSD(T)
 CCSD(T)= -0.74267475333D+02

 Unable to determine electronic state:  an orbital has unidentified symmetry.
 Alpha  occ. eigenvalues --   -3.11452  -1.96922  -1.96922  -1.92237  -1.12384
 Alpha  occ. eigenvalues --   -0.52214  -0.41483  -0.37357  -0.37357  -0.29863
 Alpha virt. eigenvalues --   -0.01016  -0.01016   0.00098   0.01925   0.03298
 Alpha virt. eigenvalues --    0.03298   0.03743   0.04452   0.05022   0.05948
 Alpha virt. eigenvalues --    0.05948   0.06106   0.07497   0.10449   0.10449

 Mulliken charges and spin densities:
               1          2
     1  Ti   0.978808   1.985643
     2  O   -0.978808   0.014357
 Sum of Mulliken charges =  -0.00000   2.00000

 Dipole moment (field-independent basis, Debye):
    X=              0.0000    Y=              0.0000    Z=              6.9936  Tot=              6.9936
 Quadrupole moment (field-independent basis, Debye-Ang):
   XX=            -21.6781   YY=            -21.6781   ZZ=            -30.9015
   XY=              0.0000   XZ=              0.0000   YZ=              0.0000

 \\#P ROCCSD(T)=(maxcyc=150, Full, SaveAmplitudes, ReadAmplitudes)/Gen
 .2105137\CCSD(T)=-74.2674753\RMSD=4.754e-09\PG=C*V [C*(O1Ti1)]\\@
 Normal termination of Gaussian 16 at Tue Mar 13 01:15:58 2018.
