 Gaussian 16, Revision A.03,
 Gaussian 16:  ES64L-G16RevA.03 25-Dec-2016

 ----------------------------------------------------------------------
 #P ROCCSD(T)=(maxcyc=150, Full, SaveAmplitudes, ReadAmplitudes)/Gen 5d
  7f SCF=(maxcycles=300) Integral(NoXCTest) MaxDisk=500GB Pop=Regular P
 seudo=Read Guess=Read
 ----------------------------------------------------------------------

 ---
 CrH
 ---
 Symbolic Z-matrix:
 Charge =  0 Multiplicity = 6

                         Standard orientation:
 ---------------------------------------------------------------------
 Center     Atomic      Atomic             Coordinates (Angstroms)
 Number     Number       Type             X           Y           Z
 ---------------------------------------------------------------------
      1         24           0        0.000000    0.000000    0.040000
      2          1           0        0.000000    0.000000   -0.960000
 ---------------------------------------------------------------------

 SCF Done:  E(ROHF) =  -86.1153143695     A.U. after   43 cycles
 E2 =    -0.6130414185D+00 EUMP2 =    -0.86728355788020D+02
 CCSD(T)
 CCSD(T)= -0.86740840007D+02

 The electronic state is 6-SG.
 Alpha  occ. eigenvalues --   -3.74511  -2.47722  -2.45453  -2.45453  -0.50379
 Alpha  occ. eigenvalues --   -0.39714  -0.39714  -0.36523  -0.36523  -0.25656
 Alpha virt. eigenvalues --    0.01673   0.01711   0.01711   0.02171   0.04727
 Alpha virt. eigenvalues --    0.05494   0.05494   0.05534   0.05534   0.05709
 Alpha virt. eigenvalues --    0.05709   0.05918   0.09200   0.13420   0.16895

 Mulliken charges and spin densities:
               1          2
     1  Cr   0.369291   5.033864
     2  H   -0.369291  -0.033864
 Sum of Mulliken charges =   0.00000   5.00000

 Dipole moment (field-independent basis, Debye):
    X=              0.0000    Y=              0.0000    Z=              1.6373  Tot=              1.6373
 Quadrupole moment (field-independent basis, Debye-Ang):
   XX=            -16.8068   YY=            -16.8068   ZZ=            -17.7046
   XY=              0.0000   XZ=              0.0000   YZ=              0.0000

 \\#P ROCCSD(T)=(maxcyc=150, Full, SaveAmplitudes, ReadAmplitudes)/Gen
 53144\PMP2-0=-86.7283558\CCSD=-86.7194131\CCSD(T)=-86.74084\RMSD=6.685
 Normal termination of Gaussian 16 at Sun Feb 25 17:37:55 2018.
