 Gaussian 16, Revision A.03,
 Gaussian 16:  ES64L-G16RevA.03 25-Dec-2016

 ----------------------------------------------------------------------
 #P ROCCSD(T)=(maxcyc=150, Full, SaveAmplitudes, ReadAmplitudes)/Gen 5d
  7f SCF=(maxcycles=300) Integral(NoXCTest) MaxDisk=500GB Pop=Regular P
 seudo=Read Guess=Read IOp(5/15=2)
 ----------------------------------------------------------------------

 ---
 TiO
 ---
 Symbolic Z-matrix:
 Charge =  0 Multiplicity = 3

                         Standard orientation:
 ---------------------------------------------------------------------
 Center     Atomic      Atomic             Coordinates (Angstroms)
 Number     Number       Type             X           Y           Z
 ---------------------------------------------------------------------
      1         22           0        0.000000    0.000000    0.320000
      2          8           0        0.000000    0.000000   -0.880000
 ---------------------------------------------------------------------

 SCF Done:  E(ROHF) =  -72.9961350362     A.U. after   24 cycles
 E2 =    -0.7214573868D+00 EUMP2 =    -0.73717592423058D+02
 CCSD(T)
 CCSD(T)= -0.73743554606D+02

 Unable to determine electronic state:  an orbital has unidentified symmetry.
 Alpha  occ. eigenvalues --   -2.94632  -2.01866  -1.80982  -1.80982  -1.11427
 Alpha  occ. eigenvalues --   -0.65837  -0.65837  -0.54634  -0.32701  -0.19933
 Alpha virt. eigenvalues --    0.01269   0.01269   0.02089   0.02815   0.04919
 Alpha virt. eigenvalues --    0.04919   0.05028   0.05199   0.05365   0.05752
 Alpha virt. eigenvalues --    0.05752   0.08505   0.12381   0.14267   0.14860

 Mulliken charges and spin densities:
               1          2
     1  Ti   0.613185   2.059264
     2  O   -0.613185  -0.059264
 Sum of Mulliken charges =  -0.00000   2.00000

 Dipole moment (field-independent basis, Debye):
    X=              0.0000    Y=              0.0000    Z=             -0.7372  Tot=              0.7372
 Quadrupole moment (field-independent basis, Debye-Ang):
   XX=            -22.6199   YY=            -22.6199   ZZ=            -26.5280
   XY=              0.0000   XZ=              0.0000   YZ=              0.0000

 \\#P ROCCSD(T)=(maxcyc=150, Full, SaveAmplitudes, ReadAmplitudes)/Gen
 123017\CCSD(T)=-73.7435546\RMSD=4.654e-09\PG=C*V [C*(O1Ti1)]\\@
 Normal termination of Gaussian 16 at Fri Mar  9 15:16:48 2018.
