 Gaussian 16, Revision A.03,
 Gaussian 16:  ES64L-G16RevA.03 25-Dec-2016

 ----------------------------------------------------------------------
 #P ROCCSD(T)=(MaxCyc=150, Full)/Gen SCF=(maxcycle=400, vshift=200) Pse
 udo=Read Integral(NoXCTest) Pop=Regular MaxDisk=500GB Guess=Read IOp(5
 /15=2)
 ----------------------------------------------------------------------

 ---
 ZnH
 ---
 Symbolic Z-matrix:
 Charge =  0 Multiplicity = 2

                         Standard orientation:
 ---------------------------------------------------------------------
 Center     Atomic      Atomic             Coordinates (Angstroms)
 Number     Number       Type             X           Y           Z
 ---------------------------------------------------------------------
      1         30           0        0.000000    0.000000    0.048387
      2          1           0        0.000000    0.000000   -1.451613
 ---------------------------------------------------------------------

 SCF Done:  E(ROHF) =  -226.150585213     A.U. after   17 cycles
 E2 =    -0.1083610799D+01 EUMP2 =    -0.22723419601253D+03
 CCSD(T)
 CCSD(T)= -0.22718605900D+03

 The electronic state is 2-SG.
 Alpha  occ. eigenvalues --   -5.88293  -3.99940  -3.99940  -3.99848  -0.80064
 Alpha  occ. eigenvalues --   -0.79826  -0.79826  -0.79366  -0.79366  -0.46658
 Alpha  occ. eigenvalues --   -0.27607
 Alpha virt. eigenvalues --    0.01970   0.01970   0.02706   0.03610   0.06727
 Alpha virt. eigenvalues --    0.06727   0.07881   0.14233   0.17241   0.17917
 Alpha virt. eigenvalues --    0.17917   0.18139   0.18139   0.21298   0.23323

 Mulliken charges and spin densities:
               1          2
     1  Zn   0.294574   0.932209
     2  H   -0.294574   0.067791
 Sum of Mulliken charges =  -0.00000   1.00000

 Dipole moment (field-independent basis, Debye):
    X=              0.0000    Y=              0.0000    Z=              0.4870  Tot=              0.4870
 Quadrupole moment (field-independent basis, Debye-Ang):
   XX=            -14.5366   YY=            -14.5366   ZZ=            -20.9388
   XY=              0.0000   XZ=              0.0000   YZ=              0.0000

 \\#P ROCCSD(T)=(MaxCyc=150, Full)/Gen SCF=(maxcycle=400, vshift=200) P
 Normal termination of Gaussian 16 at Sat Apr 21 11:18:20 2018.
