 Gaussian 16, Revision A.03,
 Gaussian 16:  ES64L-G16RevA.03 25-Dec-2016

 ----------------------------------------------------------------------
 #P ROCCSD(T)=(MaxCyc=150, Full)/Gen SCF=(maxcycle=400, vshift=200) Pse
 udo=Read Integral(NoXCTest) Pop=Regular MaxDisk=500GB Guess=Read IOp(5
 /15=2)
 ----------------------------------------------------------------------

 ---
 ZnH
 ---
 Symbolic Z-matrix:
 Charge =  0 Multiplicity = 2

                         Standard orientation:
 ---------------------------------------------------------------------
 Center     Atomic      Atomic             Coordinates (Angstroms)
 Number     Number       Type             X           Y           Z
 ---------------------------------------------------------------------
      1         30           0        0.000000    0.000000    0.048387
      2          1           0        0.000000    0.000000   -1.451613
 ---------------------------------------------------------------------

 SCF Done:  E(ROHF) =  -226.150695150     A.U. after   19 cycles
 E2 =    -0.1110108710D+01 EUMP2 =    -0.22726080386044D+03
 CCSD(T)
 CCSD(T)= -0.22721071261D+03

 The electronic state is 2-SG.
 Alpha  occ. eigenvalues --   -5.88292  -3.99939  -3.99939  -3.99847  -0.80062
 Alpha  occ. eigenvalues --   -0.79825  -0.79825  -0.79365  -0.79365  -0.46658
 Alpha  occ. eigenvalues --   -0.27608
 Alpha virt. eigenvalues --    0.01909   0.01909   0.02314   0.03292   0.06308
 Alpha virt. eigenvalues --    0.06308   0.06841   0.11913   0.13745   0.15346
 Alpha virt. eigenvalues --    0.15346   0.15470   0.15470   0.18465   0.20858

 Mulliken charges and spin densities:
               1          2
     1  Zn   0.260749   0.930303
     2  H   -0.260749   0.069697
 Sum of Mulliken charges =  -0.00000   1.00000

 Dipole moment (field-independent basis, Debye):
    X=              0.0000    Y=              0.0000    Z=              0.4872  Tot=              0.4872
 Quadrupole moment (field-independent basis, Debye-Ang):
   XX=            -14.5356   YY=            -14.5356   ZZ=            -20.9372
   XY=              0.0000   XZ=              0.0000   YZ=              0.0000

 \\#P ROCCSD(T)=(MaxCyc=150, Full)/Gen SCF=(maxcycle=400, vshift=200) P
 Normal termination of Gaussian 16 at Sun Apr 29 00:30:48 2018.
