 Gaussian 16, Revision A.03,
 Gaussian 16:  ES64L-G16RevA.03 25-Dec-2016

 ----------------------------------------------------------------------
 #P ROCCSD(T)=(MaxCyc=150, Full)/Gen SCF=(maxcycle=400, vshift=200) Pse
 udo=Read Integral(NoXCTest) Pop=Regular MaxDisk=500GB Guess=Read IOp(5
 /15=2)
 ----------------------------------------------------------------------

 ---
 ZnH
 ---
 Symbolic Z-matrix:
 Charge =  0 Multiplicity = 2

                         Standard orientation:
 ---------------------------------------------------------------------
 Center     Atomic      Atomic             Coordinates (Angstroms)
 Number     Number       Type             X           Y           Z
 ---------------------------------------------------------------------
      1         30           0        0.000000    0.000000    0.048387
      2          1           0        0.000000    0.000000   -1.451613
 ---------------------------------------------------------------------

 SCF Done:  E(ROHF) =  -226.149596322     A.U. after   22 cycles
 E2 =    -0.1028639257D+01 EUMP2 =    -0.22717823557888D+03
 CCSD(T)
 CCSD(T)= -0.22713093836D+03

 The electronic state is 2-SG.
 Alpha  occ. eigenvalues --   -5.88301  -3.99953  -3.99953  -3.99858  -0.80065
 Alpha  occ. eigenvalues --   -0.79830  -0.79830  -0.79367  -0.79367  -0.46661
 Alpha  occ. eigenvalues --   -0.27605
 Alpha virt. eigenvalues --    0.02093   0.02093   0.02845   0.03971   0.07679
 Alpha virt. eigenvalues --    0.07679   0.08862   0.15850   0.18593   0.24284
 Alpha virt. eigenvalues --    0.24284   0.25037   0.25037   0.25684   0.29168

 Mulliken charges and spin densities:
               1          2
     1  Zn   0.316593   0.943153
     2  H   -0.316593   0.056847
 Sum of Mulliken charges =  -0.00000   1.00000

 Dipole moment (field-independent basis, Debye):
    X=              0.0000    Y=              0.0000    Z=              0.4854  Tot=              0.4854
 Quadrupole moment (field-independent basis, Debye-Ang):
   XX=            -14.5402   YY=            -14.5402   ZZ=            -20.9385
   XY=              0.0000   XZ=              0.0000   YZ=              0.0000

 \\#P ROCCSD(T)=(MaxCyc=150, Full)/Gen SCF=(maxcycle=400, vshift=200) P
 CCSD(T)=-227.1309384\RMSD=9.150e-09\PG=C*V [C*(H1Zn1)]\\@
 Normal termination of Gaussian 16 at Sat Apr 21 10:25:41 2018.
