 Gaussian 16, Revision A.03,
 Gaussian 16:  ES64L-G16RevA.03 25-Dec-2016

 ----------------------------------------------------------------------
 #P ROCCSD(T)=(MaxCyc=150, Full)/Gen SCF=(maxcycle=400, vshift=200) Pse
 udo=Read Integral(NoXCTest) Pop=Regular MaxDisk=500GB Guess=Read IOp(5
 /15=2)
 ----------------------------------------------------------------------

 ---
 ZnH
 ---
 Symbolic Z-matrix:
 Charge =  0 Multiplicity = 2

                         Standard orientation:
 ---------------------------------------------------------------------
 Center     Atomic      Atomic             Coordinates (Angstroms)
 Number     Number       Type             X           Y           Z
 ---------------------------------------------------------------------
      1         30           0        0.000000    0.000000    0.051613
      2          1           0        0.000000    0.000000   -1.548387
 ---------------------------------------------------------------------

 SCF Done:  E(ROHF) =  -225.802627674     A.U. after   19 cycles
 E2 =    -0.1112237319D+01 EUMP2 =    -0.22691486499300D+03
 CCSD(T)
 CCSD(T)= -0.22686497549D+03

 The electronic state is 2-SG.
 Alpha  occ. eigenvalues --   -5.87755  -3.95707  -3.95707  -3.95518  -0.80060
 Alpha  occ. eigenvalues --   -0.80060  -0.79974  -0.79558  -0.79558  -0.45659
 Alpha  occ. eigenvalues --   -0.27853
 Alpha virt. eigenvalues --    0.01880   0.01880   0.02355   0.03257   0.06271
 Alpha virt. eigenvalues --    0.06271   0.06806   0.11982   0.13484   0.15346
 Alpha virt. eigenvalues --    0.15346   0.15427   0.15427   0.18222   0.20948

 Mulliken charges and spin densities:
               1          2
     1  Zn   0.266828   0.921387
     2  H   -0.266828   0.078613
 Sum of Mulliken charges =  -0.00000   1.00000

 Dipole moment (field-independent basis, Debye):
    X=              0.0000    Y=              0.0000    Z=              0.7842  Tot=              0.7842
 Quadrupole moment (field-independent basis, Debye-Ang):
   XX=            -14.6308   YY=            -14.6308   ZZ=            -21.2354
   XY=              0.0000   XZ=              0.0000   YZ=              0.0000

 \\#P ROCCSD(T)=(MaxCyc=150, Full)/Gen SCF=(maxcycle=400, vshift=200) P
 Normal termination of Gaussian 16 at Mon Apr 30 08:42:49 2018.
