 Gaussian 16, Revision A.03,
 Gaussian 16:  ES64L-G16RevA.03 25-Dec-2016

 ----------------------------------------------------------------------
 #P ROCCSD(T)=(MaxCyc=150, Full)/Gen SCF=(maxcycle=400, vshift=200) Pse
 udo=Read Integral(NoXCTest) Pop=Regular MaxDisk=500GB Guess=Read IOp(5
 /15=2)
 ----------------------------------------------------------------------

 ---
 ZnH
 ---
 Symbolic Z-matrix:
 Charge =  0 Multiplicity = 2

                         Standard orientation:
 ---------------------------------------------------------------------
 Center     Atomic      Atomic             Coordinates (Angstroms)
 Number     Number       Type             X           Y           Z
 ---------------------------------------------------------------------
      1         30           0        0.000000    0.000000    0.051613
      2          1           0        0.000000    0.000000   -1.548387
 ---------------------------------------------------------------------

 SCF Done:  E(ROHF) =  -225.801541921     A.U. after   14 cycles
 E2 =    -0.1030835860D+01 EUMP2 =    -0.22683237778137D+03
 CCSD(T)
 CCSD(T)= -0.22678529802D+03

 The electronic state is 2-SG.
 Alpha  occ. eigenvalues --   -5.87763  -3.95721  -3.95721  -3.95527  -0.80065
 Alpha  occ. eigenvalues --   -0.80065  -0.79975  -0.79559  -0.79559  -0.45661
 Alpha  occ. eigenvalues --   -0.27850
 Alpha virt. eigenvalues --    0.02061   0.02061   0.02909   0.03907   0.07643
 Alpha virt. eigenvalues --    0.07643   0.08826   0.15869   0.18149   0.24128
 Alpha virt. eigenvalues --    0.24128   0.24959   0.24959   0.25409   0.29364

 Mulliken charges and spin densities:
               1          2
     1  Zn   0.330712   0.931514
     2  H   -0.330712   0.068486
 Sum of Mulliken charges =  -0.00000   1.00000

 Dipole moment (field-independent basis, Debye):
    X=              0.0000    Y=              0.0000    Z=              0.7816  Tot=              0.7816
 Quadrupole moment (field-independent basis, Debye-Ang):
   XX=            -14.6346   YY=            -14.6346   ZZ=            -21.2386
   XY=              0.0000   XZ=              0.0000   YZ=              0.0000

 \\#P ROCCSD(T)=(MaxCyc=150, Full)/Gen SCF=(maxcycle=400, vshift=200) P
 CCSD(T)=-226.785298\RMSD=5.861e-09\PG=C*V [C*(H1Zn1)]\\@
 Normal termination of Gaussian 16 at Sat Apr 21 11:00:03 2018.
