 Gaussian 16, Revision A.03,
 Gaussian 16:  ES64L-G16RevA.03 25-Dec-2016

 ----------------------------------------------------------------------
 #P ROCCSD(T)=(MaxCyc=150, Full)/Gen SCF=(maxcycle=400, vshift=200) Pse
 udo=Read Integral(NoXCTest) Pop=Regular MaxDisk=500GB Guess=Read IOp(5
 /15=2)
 ----------------------------------------------------------------------

 ---
 ZnH
 ---
 Symbolic Z-matrix:
 Charge =  0 Multiplicity = 2

                         Standard orientation:
 ---------------------------------------------------------------------
 Center     Atomic      Atomic             Coordinates (Angstroms)
 Number     Number       Type             X           Y           Z
 ---------------------------------------------------------------------
      1         30           0        0.000000    0.000000    0.051613
      2          1           0        0.000000    0.000000   -1.548387
 ---------------------------------------------------------------------

 SCF Done:  E(ROHF) =  -225.802518931     A.U. after   17 cycles
 E2 =    -0.1085735663D+01 EUMP2 =    -0.22688825459374D+03
 CCSD(T)
 CCSD(T)= -0.22684032262D+03

 The electronic state is 2-SG.
 Alpha  occ. eigenvalues --   -5.87755  -3.95708  -3.95708  -3.95518  -0.80061
 Alpha  occ. eigenvalues --   -0.80061  -0.79975  -0.79558  -0.79558  -0.45658
 Alpha  occ. eigenvalues --   -0.27852
 Alpha virt. eigenvalues --    0.01940   0.01940   0.02783   0.03538   0.06690
 Alpha virt. eigenvalues --    0.06690   0.07836   0.14167   0.16902   0.17923
 Alpha virt. eigenvalues --    0.17923   0.18084   0.18084   0.21122   0.23407

 Mulliken charges and spin densities:
               1          2
     1  Zn   0.304172   0.923154
     2  H   -0.304172   0.076846
 Sum of Mulliken charges =  -0.00000   1.00000

 Dipole moment (field-independent basis, Debye):
    X=              0.0000    Y=              0.0000    Z=              0.7839  Tot=              0.7839
 Quadrupole moment (field-independent basis, Debye-Ang):
   XX=            -14.6315   YY=            -14.6315   ZZ=            -21.2376
   XY=              0.0000   XZ=              0.0000   YZ=              0.0000

 \\#P ROCCSD(T)=(MaxCyc=150, Full)/Gen SCF=(maxcycle=400, vshift=200) P
 CCSD(T)=-226.8403226\RMSD=4.851e-09\PG=C*V [C*(H1Zn1)]\\@
 Normal termination of Gaussian 16 at Sat Apr 21 12:23:53 2018.
