 Gaussian 16, Revision A.03,
 Gaussian 16:  ES64L-G16RevA.03 25-Dec-2016

 ----------------------------------------------------------------------
 #P ROCCSD(T)=(MaxCyc=150, Full)/Gen SCF=(maxcycle=400, vshift=200) Pse
 udo=Read Integral(NoXCTest) Pop=Regular MaxDisk=500GB Guess=Read IOp(5
 /15=2)
 ----------------------------------------------------------------------

 ---
 ZnH
 ---
 Symbolic Z-matrix:
 Charge =  0 Multiplicity = 2

                         Standard orientation:
 ---------------------------------------------------------------------
 Center     Atomic      Atomic             Coordinates (Angstroms)
 Number     Number       Type             X           Y           Z
 ---------------------------------------------------------------------
      1         30           0        0.000000    0.000000    0.035484
      2          1           0        0.000000    0.000000   -1.064516
 ---------------------------------------------------------------------

 SCF Done:  E(ROHF) =  -226.042608723     A.U. after   24 cycles
 E2 =    -0.1126212414D+01 EUMP2 =    -0.22716882113667D+03
 CCSD(T)
 CCSD(T)= -0.22711236342D+03

 The electronic state is 2-SG.
 Alpha  occ. eigenvalues --   -5.90928  -4.03426  -4.01977  -4.01977  -0.86114
 Alpha  occ. eigenvalues --   -0.82095  -0.82095  -0.81596  -0.81596  -0.49193
 Alpha  occ. eigenvalues --   -0.26368
 Alpha virt. eigenvalues --    0.01970   0.01970   0.02024   0.03404   0.06364
 Alpha virt. eigenvalues --    0.06364   0.07001   0.11972   0.13845   0.15270
 Alpha virt. eigenvalues --    0.15270   0.15560   0.15560   0.19364   0.20138

 Mulliken charges and spin densities:
               1          2
     1  Zn   0.363083   0.960134
     2  H   -0.363083   0.039866
 Sum of Mulliken charges =  -0.00000   1.00000

 Dipole moment (field-independent basis, Debye):
    X=              0.0000    Y=              0.0000    Z=             -0.4490  Tot=              0.4490
 Quadrupole moment (field-independent basis, Debye-Ang):
   XX=            -14.4165   YY=            -14.4165   ZZ=            -20.4584
   XY=              0.0000   XZ=              0.0000   YZ=              0.0000

 \\#P ROCCSD(T)=(MaxCyc=150, Full)/Gen SCF=(maxcycle=400, vshift=200) P
 CCSD(T)=-227.1123634\RMSD=3.153e-09\PG=C*V [C*(H1Zn1)]\\@
 Normal termination of Gaussian 16 at Mon Apr 30 13:11:33 2018.
