 Gaussian 16, Revision A.03,
 Gaussian 16:  ES64L-G16RevA.03 25-Dec-2016

 ----------------------------------------------------------------------
 #P ROCCSD(T)=(MaxCyc=150, Full)/Gen SCF=(maxcycle=400, vshift=200) Pse
 udo=Read Integral(NoXCTest) Pop=Regular MaxDisk=500GB Guess=Read IOp(5
 /15=2)
 ----------------------------------------------------------------------

 ---
 ZnH
 ---
 Symbolic Z-matrix:
 Charge =  0 Multiplicity = 2

                         Standard orientation:
 ---------------------------------------------------------------------
 Center     Atomic      Atomic             Coordinates (Angstroms)
 Number     Number       Type             X           Y           Z
 ---------------------------------------------------------------------
      1         30           0        0.000000    0.000000    0.035484
      2          1           0        0.000000    0.000000   -1.064516
 ---------------------------------------------------------------------

 SCF Done:  E(ROHF) =  -226.041282597     A.U. after   25 cycles
 E2 =    -0.1044664935D+01 EUMP2 =    -0.22708594753175D+03
 CCSD(T)
 CCSD(T)= -0.22703242028D+03

 The electronic state is 2-SG.
 Alpha  occ. eigenvalues --   -5.90937  -4.03438  -4.01992  -4.01992  -0.86116
 Alpha  occ. eigenvalues --   -0.82095  -0.82095  -0.81602  -0.81602  -0.49197
 Alpha  occ. eigenvalues --   -0.26367
 Alpha virt. eigenvalues --    0.02159   0.02159   0.02483   0.04191   0.07729
 Alpha virt. eigenvalues --    0.07729   0.08979   0.16355   0.19214   0.24387
 Alpha virt. eigenvalues --    0.24387   0.25185   0.25185   0.27270   0.27952

 Mulliken charges and spin densities:
               1          2
     1  Zn   0.297915   0.958605
     2  H   -0.297915   0.041395
 Sum of Mulliken charges =  -0.00000   1.00000

 Dipole moment (field-independent basis, Debye):
    X=              0.0000    Y=              0.0000    Z=             -0.4454  Tot=              0.4454
 Quadrupole moment (field-independent basis, Debye-Ang):
   XX=            -14.4258   YY=            -14.4258   ZZ=            -20.4468
   XY=              0.0000   XZ=              0.0000   YZ=              0.0000

 \\#P ROCCSD(T)=(MaxCyc=150, Full)/Gen SCF=(maxcycle=400, vshift=200) P
 CCSD(T)=-227.0324203\RMSD=5.046e-09\PG=C*V [C*(H1Zn1)]\\@
 Normal termination of Gaussian 16 at Sun Apr 22 03:54:08 2018.
