 Gaussian 16, Revision A.03,
 Gaussian 16:  ES64L-G16RevA.03 25-Dec-2016

 ----------------------------------------------------------------------
 #P ROCCSD(T)=(MaxCyc=150, Full)/Gen SCF=(maxcycle=400, vshift=200) Pse
 udo=Read Integral(NoXCTest) Pop=Regular MaxDisk=500GB Guess=Read IOp(5
 /15=2)
 ----------------------------------------------------------------------

 ---
 ZnH
 ---
 Symbolic Z-matrix:
 Charge =  0 Multiplicity = 2

                         Standard orientation:
 ---------------------------------------------------------------------
 Center     Atomic      Atomic             Coordinates (Angstroms)
 Number     Number       Type             X           Y           Z
 ---------------------------------------------------------------------
      1         30           0        0.000000    0.000000    0.035484
      2          1           0        0.000000    0.000000   -1.064516
 ---------------------------------------------------------------------

 SCF Done:  E(ROHF) =  -226.042468635     A.U. after   21 cycles
 E2 =    -0.1099627356D+01 EUMP2 =    -0.22714209599115D+03
 CCSD(T)
 CCSD(T)= -0.22708764093D+03

 The electronic state is 2-SG.
 Alpha  occ. eigenvalues --   -5.90929  -4.03427  -4.01978  -4.01978  -0.86115
 Alpha  occ. eigenvalues --   -0.82094  -0.82094  -0.81598  -0.81598  -0.49193
 Alpha  occ. eigenvalues --   -0.26367
 Alpha virt. eigenvalues --    0.02033   0.02033   0.02299   0.03858   0.06790
 Alpha virt. eigenvalues --    0.06790   0.08081   0.14786   0.17621   0.17759
 Alpha virt. eigenvalues --    0.17759   0.18253   0.18253   0.22134   0.22671

 Mulliken charges and spin densities:
               1          2
     1  Zn   0.234123   0.945880
     2  H   -0.234123   0.054120
 Sum of Mulliken charges =   0.00000   1.00000

 Dipole moment (field-independent basis, Debye):
    X=              0.0000    Y=              0.0000    Z=             -0.4483  Tot=              0.4483
 Quadrupole moment (field-independent basis, Debye-Ang):
   XX=            -14.4191   YY=            -14.4191   ZZ=            -20.4569
   XY=              0.0000   XZ=              0.0000   YZ=              0.0000

 \\#P ROCCSD(T)=(MaxCyc=150, Full)/Gen SCF=(maxcycle=400, vshift=200) P
 Normal termination of Gaussian 16 at Sun Apr 22 04:47:13 2018.
