 Gaussian 16, Revision A.03,
 Gaussian 16:  ES64L-G16RevA.03 25-Dec-2016

 ----------------------------------------------------------------------
 #P ROCCSD(T)=(maxcyc=150, Full, SaveAmplitudes, ReadAmplitudes)/Gen 5d
  7f SCF=(maxcycles=300, VShift=400) Integral(NoXCTest) MaxDisk=500GB P
 op=Full Pseudo=Read Guess=Read IOp(5/15=2)
 ----------------------------------------------------------------------

 ---
 MnO
 ---
 Symbolic Z-matrix:
 Charge =  0 Multiplicity = 6

                         Standard orientation:
 ---------------------------------------------------------------------
 Center     Atomic      Atomic             Coordinates (Angstroms)
 Number     Number       Type             X           Y           Z
 ---------------------------------------------------------------------
      1         25           0        0.000000    0.000000    0.339394
      2          8           0        0.000000    0.000000   -1.060606
 ---------------------------------------------------------------------

 SCF Done:  E(ROHF) =  -119.284569543     A.U. after   48 cycles
 E2 =    -0.9355789197D+00 EUMP2 =    -0.12022014846289D+03
 CCSD(T)
 CCSD(T)= -0.12023092849D+03

 The electronic state is 6-SG.
 Alpha  occ. eigenvalues --   -4.12783  -2.75468  -2.75468  -2.73382  -1.24159
 Alpha  occ. eigenvalues --   -0.71090  -0.71090  -0.63992  -0.63992  -0.55774
 Alpha  occ. eigenvalues --   -0.41287  -0.41287  -0.31546
 Alpha virt. eigenvalues --    0.01177   0.02170   0.02170   0.03345   0.05150
 Alpha virt. eigenvalues --    0.07088   0.07088   0.08698   0.08698   0.09370
 Alpha virt. eigenvalues --    0.09370   0.09475   0.12582   0.15498   0.23707

 Mulliken charges and spin densities:
               1          2
     1  Mn   0.916374   4.801068
     2  O   -0.916374   0.198932
 Sum of Mulliken charges =  -0.00000   5.00000

 Dipole moment (field-independent basis, Debye):
    X=              0.0000    Y=              0.0000    Z=              4.2616  Tot=              4.2616
 Quadrupole moment (field-independent basis, Debye-Ang):
   XX=            -19.5466   YY=            -19.5466   ZZ=            -23.0767
   XY=              0.0000   XZ=              0.0000   YZ=              0.0000

 \\#P ROCCSD(T)=(maxcyc=150, Full, SaveAmplitudes, ReadAmplitudes)/Gen
 4SDQ=-120.2071268\CCSD=-120.1891839\CCSD(T)=-120.2309285\RMSD=8.030e-0
 Normal termination of Gaussian 16 at Wed Apr  4 02:20:35 2018.
