 Gaussian 16, Revision A.03,
 Gaussian 16:  ES64L-G16RevA.03 25-Dec-2016

 ----------------------------------------------------------------------
 #P ROCCSD(T)=(maxcyc=150, Full, SaveAmplitudes, ReadAmplitudes)/Gen 5d
  7f SCF=(maxcycles=300) Integral(NoXCTest) MaxDisk=500GB Pop=Regular P
 seudo=Read Guess=Read IOp(5/15=2)
 ----------------------------------------------------------------------

 ---
 CrO
 ---
 Symbolic Z-matrix:
 Charge =  0 Multiplicity = 5

                         Standard orientation:
 ---------------------------------------------------------------------
 Center     Atomic      Atomic             Coordinates (Angstroms)
 Number     Number       Type             X           Y           Z
 ---------------------------------------------------------------------
      1         24           0        0.000000    0.000000    0.425000
      2          8           0        0.000000    0.000000   -1.275000
 ---------------------------------------------------------------------

 SCF Done:  E(ROHF) =  -101.998595167     A.U. after   47 cycles
 E2 =    -0.8754393509D+00 EUMP2 =    -0.10287403451805D+03
 CCSD(T)
 CCSD(T)= -0.10292090570D+03

 Unable to determine electronic state:  an orbital has unidentified symmetry.
 Alpha  occ. eigenvalues --   -3.68475  -2.46461  -2.41729  -2.40676  -1.11979
 Alpha  occ. eigenvalues --   -0.55795  -0.55735  -0.53946  -0.49570  -0.36582
 Alpha  occ. eigenvalues --   -0.33786  -0.32941
 Alpha virt. eigenvalues --   -0.03581   0.00850   0.01568   0.02139   0.03727
 Alpha virt. eigenvalues --    0.05040   0.06355   0.07508   0.07525   0.07684
 Alpha virt. eigenvalues --    0.08307   0.08791   0.13265   0.14716   0.15520

 Mulliken charges and spin densities:
               1          2
     1  Cr   1.179848   3.904527
     2  O   -1.179848   0.095473
 Sum of Mulliken charges =  -0.00000   4.00000

 Dipole moment (field-independent basis, Debye):
    X=              0.0000    Y=              0.0000    Z=              8.9186  Tot=              8.9186
 Quadrupole moment (field-independent basis, Debye-Ang):
   XX=            -19.7106   YY=            -18.6449   ZZ=            -23.0367
   XY=              0.0000   XZ=              0.0000   YZ=              0.0000

 \\#P ROCCSD(T)=(maxcyc=150, Full, SaveAmplitudes, ReadAmplitudes)/Gen
 D=-102.8704834\CCSD(T)=-102.9209057\RMSD=5.448e-09\PG=C*V [C*(O1Cr1)]\
 Normal termination of Gaussian 16 at Tue Mar 13 06:21:53 2018.
