 Gaussian 16, Revision A.03,
 Gaussian 16:  ES64L-G16RevA.03 25-Dec-2016

 ----------------------------------------------------------------------
 #P ROCCSD(T)=(MaxCyc=150, Full)/Gen SCF=(maxcycle=400, vshift=200) Pse
 udo=Read Integral(NoXCTest) Pop=Regular MaxDisk=500GB Guess=Read IOp(5
 /15=2)
 ----------------------------------------------------------------------

 ---
 FeH
 ---
 Symbolic Z-matrix:
 Charge =  0 Multiplicity = 4

                         Standard orientation:
 ---------------------------------------------------------------------
 Center     Atomic      Atomic             Coordinates (Angstroms)
 Number     Number       Type             X           Y           Z
 ---------------------------------------------------------------------
      1         26           0        0.000000    0.000000    0.051852
      2          1           0        0.000000    0.000000   -1.348148
 ---------------------------------------------------------------------

 SCF Done:  E(ROHF) =  -123.282661025     A.U. after   17 cycles
 E2 =    -0.8292497191D+00 EUMP2 =    -0.12411191074416D+03
 CCSD(T)
 CCSD(T)= -0.12410600684D+03

 Unable to determine electronic state:  an orbital has unidentified symmetry.
 Alpha  occ. eigenvalues --   -4.19059  -2.81384  -2.80184  -2.80184  -0.52148
 Alpha  occ. eigenvalues --   -0.52148  -0.50685  -0.48667  -0.45767  -0.31300
 Alpha virt. eigenvalues --   -0.00084   0.02173   0.02173   0.02484   0.03637
 Alpha virt. eigenvalues --    0.05829   0.06254   0.06264   0.06311   0.06311
 Alpha virt. eigenvalues --    0.07297   0.07297   0.08385   0.13019   0.17110

 Mulliken charges and spin densities:
               1          2
     1  Fe   0.284448   2.993630
     2  H   -0.284448   0.006370
 Sum of Mulliken charges =  -0.00000   3.00000

 Dipole moment (field-independent basis, Debye):
    X=              0.0000    Y=              0.0000    Z=              3.7940  Tot=              3.7940
 Quadrupole moment (field-independent basis, Debye-Ang):
   XX=            -16.0837   YY=            -16.0837   ZZ=            -16.4309
   XY=              0.0000   XZ=              0.0000   YZ=              0.0000

 \\#P ROCCSD(T)=(MaxCyc=150, Full)/Gen SCF=(maxcycle=400, vshift=200) P
 MP2-0=-124.1119107\MP4SDQ=-124.0852127\CCSD=-124.0747221\CCSD(T)=-124.
 Normal termination of Gaussian 16 at Sat Mar 24 03:13:16 2018.
