 Gaussian 16, Revision A.03,
 Gaussian 16:  ES64L-G16RevA.03 25-Dec-2016

 ----------------------------------------------------------------------
 #P ROCCSD(T)=(MaxCyc=150, Full)/Gen SCF=(maxcycle=400, vshift=200) Pse
 udo=Read Integral(NoXCTest) Pop=Regular MaxDisk=500GB Guess=Read IOp(5
 /15=2)
 ----------------------------------------------------------------------

 ---
 FeH
 ---
 Symbolic Z-matrix:
 Charge =  0 Multiplicity = 4

                         Standard orientation:
 ---------------------------------------------------------------------
 Center     Atomic      Atomic             Coordinates (Angstroms)
 Number     Number       Type             X           Y           Z
 ---------------------------------------------------------------------
      1         26           0        0.000000    0.000000    0.051852
      2          1           0        0.000000    0.000000   -1.348148
 ---------------------------------------------------------------------

 SCF Done:  E(ROHF) =  -123.282497154     A.U. after   28 cycles
 E2 =    -0.8149965844D+00 EUMP2 =    -0.12409749373829D+03
 CCSD(T)
 CCSD(T)= -0.12409365780D+03

 Unable to determine electronic state:  partially filled degenerate orbitals.
 Alpha  occ. eigenvalues --   -4.19063  -2.81388  -2.80188  -2.80188  -0.52152
 Alpha  occ. eigenvalues --   -0.52152  -0.50689  -0.48666  -0.45766  -0.31300
 Alpha virt. eigenvalues --   -0.00045   0.02239   0.02239   0.02781   0.04223
 Alpha virt. eigenvalues --    0.06237   0.06829   0.06836   0.06836   0.06841
 Alpha virt. eigenvalues --    0.07639   0.07639   0.09569   0.16912   0.17914

 Mulliken charges and spin densities:
               1          2
     1  Fe   0.284331   2.994212
     2  H   -0.284331   0.005788
 Sum of Mulliken charges =  -0.00000   3.00000

 Dipole moment (field-independent basis, Debye):
    X=              0.0000    Y=              0.0000    Z=              3.7941  Tot=              3.7941
 Quadrupole moment (field-independent basis, Debye-Ang):
   XX=            -16.0857   YY=            -16.0857   ZZ=            -16.4289
   XY=              0.0000   XZ=              0.0000   YZ=              0.0000

 \\#P ROCCSD(T)=(MaxCyc=150, Full)/Gen SCF=(maxcycle=400, vshift=200) P
 \PMP2-0=-124.0974937\MP4SDQ=-124.0734694\CCSD=-124.0628987\CCSD(T)=-12
 Normal termination of Gaussian 16 at Sat Mar 24 01:21:49 2018.
