 Gaussian 16, Revision A.03,
 Gaussian 16:  ES64L-G16RevA.03 25-Dec-2016

 ----------------------------------------------------------------------
 #P ROCCSD(T)=(MaxCyc=150, Full)/Gen SCF=(maxcycle=400, vshift=200) Pse
 udo=Read Integral(NoXCTest) Pop=Regular MaxDisk=500GB Guess=Read IOp(5
 /15=2)
 ----------------------------------------------------------------------

 ---
 FeH
 ---
 Symbolic Z-matrix:
 Charge =  0 Multiplicity = 4

                         Standard orientation:
 ---------------------------------------------------------------------
 Center     Atomic      Atomic             Coordinates (Angstroms)
 Number     Number       Type             X           Y           Z
 ---------------------------------------------------------------------
      1         26           0        0.000000    0.000000    0.051852
      2          1           0        0.000000    0.000000   -1.348148
 ---------------------------------------------------------------------

 SCF Done:  E(ROHF) =  -123.281071616     A.U. after   29 cycles
 E2 =    -0.7793599015D+00 EUMP2 =    -0.12406043151745D+03
 CCSD(T)
 CCSD(T)= -0.12405873687D+03

 Unable to determine electronic state:  an orbital has unidentified symmetry.
 Alpha  occ. eigenvalues --   -4.19087  -2.81410  -2.80208  -2.80208  -0.52153
 Alpha  occ. eigenvalues --   -0.52153  -0.50688  -0.48661  -0.45762  -0.31300
 Alpha virt. eigenvalues --   -0.00021   0.02463   0.02463   0.03045   0.04449
 Alpha virt. eigenvalues --    0.08376   0.08376   0.09619   0.10298   0.10335
 Alpha virt. eigenvalues --    0.10350   0.10350   0.10587   0.16935   0.24500

 Mulliken charges and spin densities:
               1          2
     1  Fe   0.405458   2.996002
     2  H   -0.405458   0.003998
 Sum of Mulliken charges =   0.00000   3.00000

 Dipole moment (field-independent basis, Debye):
    X=              0.0000    Y=              0.0000    Z=              3.7976  Tot=              3.7976
 Quadrupole moment (field-independent basis, Debye-Ang):
   XX=            -16.0973   YY=            -16.0973   ZZ=            -16.4217
   XY=              0.0000   XZ=              0.0000   YZ=              0.0000

 \\#P ROCCSD(T)=(MaxCyc=150, Full)/Gen SCF=(maxcycle=400, vshift=200) P
 \PMP2-0=-124.0604315\MP4SDQ=-124.0401261\CCSD=-124.0294676\CCSD(T)=-12
 Normal termination of Gaussian 16 at Sat Mar 24 00:36:35 2018.
