 Gaussian 16, Revision A.03,
 Gaussian 16:  ES64L-G16RevA.03 25-Dec-2016

 ----------------------------------------------------------------------
 #P ROCCSD(T)=(maxcyc=150, Full, SaveAmplitudes, ReadAmplitudes)/Gen 5d
  7f SCF=(maxcycles=300, VShift=400) Integral(NoXCTest) MaxDisk=500GB P
 op=Full Pseudo=Read Guess=Read
 ----------------------------------------------------------------------

 ---
 ScH
 ---
 Symbolic Z-matrix:
 Charge =  0 Multiplicity = 1

                         Standard orientation:
 ---------------------------------------------------------------------
 Center     Atomic      Atomic             Coordinates (Angstroms)
 Number     Number       Type             X           Y           Z
 ---------------------------------------------------------------------
      1         21           0        0.000000    0.000000    0.081818
      2          1           0        0.000000    0.000000   -1.718182
 ---------------------------------------------------------------------

 SCF Done:  E(ROHF) =  -46.6760527985     A.U. after   19 cycles
 E2 =    -0.4211276341D+00 EUMP2 =    -0.47097180432623D+02
 CCSD(T)
 CCSD(T)= -0.47141071343D+02

 The electronic state is 1-SG.
 Alpha  occ. eigenvalues --   -2.68497  -1.67011  -1.67011  -1.66978  -0.40491
 Alpha  occ. eigenvalues --   -0.23225
 Alpha virt. eigenvalues --    0.01091   0.01091   0.01453   0.01959   0.02847
 Alpha virt. eigenvalues --    0.02847   0.02926   0.02926   0.02953   0.04055
 Alpha virt. eigenvalues --    0.04055   0.04173   0.07224   0.07224   0.07778

 Mulliken charges and spin densities:
               1          2
     1  Sc   0.268072   0.000000
     2  H   -0.268072   0.000000
 Sum of Mulliken charges =  -0.00000   0.00000

 Dipole moment (field-independent basis, Debye):
    X=              0.0000    Y=              0.0000    Z=              1.4973  Tot=              1.4973
 Quadrupole moment (field-independent basis, Debye-Ang):
   XX=            -23.0632   YY=            -23.0632   ZZ=            -26.8213
   XY=              0.0000   XZ=              0.0000   YZ=              0.0000

 P ROCCSD(T)=(maxcyc=150, Full, SaveAmplitudes, ReadAmplitudes)/Gen 5d
 =-46.6760528\PMP2-0=-47.0971804\CCSD=-47.1217122\CCSD(T)=-47.1410713\R
 Normal termination of Gaussian 16 at Thu Apr 19 08:09:53 2018.
