 Gaussian 16, Revision A.03,
 Gaussian 16:  ES64L-G16RevA.03 25-Dec-2016

 ----------------------------------------------------------------------
 #P ROCCSD(T)=(maxcyc=150, Full, SaveAmplitudes, ReadAmplitudes)/Gen 5d
  7f SCF=(maxcycles=300) Integral(NoXCTest) MaxDisk=500GB Pop=Regular P
 seudo=Read Guess=Read IOp(5/15=2)
 ----------------------------------------------------------------------

 ---
 MnO
 ---
 Symbolic Z-matrix:
 Charge =  0 Multiplicity = 6

                         Standard orientation:
 ---------------------------------------------------------------------
 Center     Atomic      Atomic             Coordinates (Angstroms)
 Number     Number       Type             X           Y           Z
 ---------------------------------------------------------------------
      1         25           0        0.000000    0.000000    0.339394
      2          8           0        0.000000    0.000000   -1.060606
 ---------------------------------------------------------------------

 SCF Done:  E(ROHF) =  -119.302297459     A.U. after   29 cycles
 E2 =    -0.9469964554D+00 EUMP2 =    -0.12024929391439D+03
 CCSD(T)
 CCSD(T)= -0.12026201043D+03

 The electronic state is 6-SG.
 Alpha  occ. eigenvalues --   -4.09230  -2.75354  -2.75354  -2.72969  -1.22654
 Alpha  occ. eigenvalues --   -0.70507  -0.70507  -0.63317  -0.63317  -0.55731
 Alpha  occ. eigenvalues --   -0.41164  -0.41164  -0.31900
 Alpha virt. eigenvalues --    0.01177   0.02174   0.02174   0.03315   0.05036
 Alpha virt. eigenvalues --    0.07048   0.07048   0.08698   0.08698   0.09362
 Alpha virt. eigenvalues --    0.09362   0.09471   0.12539   0.15304   0.23445

 Mulliken charges and spin densities:
               1          2
     1  Mn   0.925310   4.811918
     2  O   -0.925310   0.188082
 Sum of Mulliken charges =  -0.00000   5.00000

 Dipole moment (field-independent basis, Debye):
    X=              0.0000    Y=              0.0000    Z=              4.2264  Tot=              4.2264
 Quadrupole moment (field-independent basis, Debye-Ang):
   XX=            -19.5786   YY=            -19.5786   ZZ=            -23.1471
   XY=              0.0000   XZ=              0.0000   YZ=              0.0000

 \\#P ROCCSD(T)=(maxcyc=150, Full, SaveAmplitudes, ReadAmplitudes)/Gen
 .2365466\CCSD=-120.2198346\CCSD(T)=-120.2620104\RMSD=8.360e-09\PG=C*V
 Normal termination of Gaussian 16 at Mon Mar 12 14:38:13 2018.
