 Gaussian 16, Revision A.03,
 Gaussian 16:  ES64L-G16RevA.03 25-Dec-2016

 ----------------------------------------------------------------------
 #P ROCCSD(T)=(maxcyc=150, Full)/Gen 5d 7f SCF=(maxcycles=300) Integral
 (NoXCTest) MaxDisk=500GB Pop=Regular Pseudo=Read IOp(5/15=2) Guess=Rea
 d
 ----------------------------------------------------------------------

 ---
 ScH
 ---
 Symbolic Z-matrix:
 Charge =  0 Multiplicity = 1

                         Standard orientation:
 ---------------------------------------------------------------------
 Center     Atomic      Atomic             Coordinates (Angstroms)
 Number     Number       Type             X           Y           Z
 ---------------------------------------------------------------------
      1         21           0        0.000000    0.000000    0.045455
      2          1           0        0.000000    0.000000   -0.954545
 ---------------------------------------------------------------------

 SCF Done:  E(ROHF) =  -46.3243366494     A.U. after   10 cycles
 E2 =    -0.4314839828D+00 EUMP2 =    -0.46755820632117D+02
 CCSD(T)
 CCSD(T)= -0.46792394286D+02

 The electronic state is 1-SG.
 Alpha  occ. eigenvalues --   -2.61216  -1.66963  -1.56629  -1.56629  -0.47756
 Alpha  occ. eigenvalues --   -0.21284
 Alpha virt. eigenvalues --    0.01210   0.01352   0.01352   0.02147   0.02883
 Alpha virt. eigenvalues --    0.02883   0.02906   0.02907   0.02907   0.04383
 Alpha virt. eigenvalues --    0.04543   0.04543   0.08269   0.08269   0.08436

 Mulliken charges and spin densities:
               1          2
     1  Sc   0.320519   0.000000
     2  H   -0.320519   0.000000
 Sum of Mulliken charges =  -0.00000   0.00000

 Dipole moment (field-independent basis, Debye):
    X=              0.0000    Y=              0.0000    Z=              1.2884  Tot=              1.2884
 Quadrupole moment (field-independent basis, Debye-Ang):
   XX=            -23.5453   YY=            -23.5453   ZZ=            -22.1134
   XY=              0.0000   XZ=              0.0000   YZ=              0.0000

 P ROCCSD(T)=(maxcyc=150, Full)/Gen 5d 7f SCF=(maxcycles=300) Integral(
 MP2-0=-46.7558206\MP4SDQ=-46.7747197\CCSD=-46.7745698\CCSD(T)=-46.7923
 Normal termination of Gaussian 16 at Tue Feb 13 15:43:28 2018.
