 Gaussian 16, Revision A.03,
 Gaussian 16:  ES64L-G16RevA.03 25-Dec-2016

 ----------------------------------------------------------------------
 #P ROCCSD(T)=(MaxCyc=150, Full)/Gen SCF=(maxcycle=400) Pseudo=Read Int
 egral(NoXCTest) Pop=Regular MaxDisk=500GB Guess=Read IOp(5/15=2)
 ----------------------------------------------------------------------

 ---
 CoO
 ---
 Symbolic Z-matrix:
 Charge =  0 Multiplicity = 4

                         Standard orientation:
 ---------------------------------------------------------------------
 Center     Atomic      Atomic             Coordinates (Angstroms)
 Number     Number       Type             X           Y           Z
 ---------------------------------------------------------------------
      1         27           0        0.000000    0.000000    0.388571
      2          8           0        0.000000    0.000000   -1.311429
 ---------------------------------------------------------------------

 SCF Done:  E(ROHF) =  -160.662297159     A.U. after   22 cycles
 E2 =    -0.1117396101D+01 EUMP2 =    -0.16177969326033D+03
 CCSD(T)
 CCSD(T)= -0.16180095195D+03

 Unable to determine electronic state:  partially filled degenerate orbitals.
 Alpha  occ. eigenvalues --   -4.89293  -3.24832  -3.24722  -3.24722  -1.15965
 Alpha  occ. eigenvalues --   -0.77082  -0.77082  -0.76419  -0.71364  -0.68877
 Alpha  occ. eigenvalues --   -0.38573  -0.38573  -0.35678
 Alpha virt. eigenvalues --   -0.04852   0.01763   0.01763   0.01974   0.03750
 Alpha virt. eigenvalues --    0.06705   0.06705   0.07077   0.07086   0.07092
 Alpha virt. eigenvalues --    0.08250   0.08250   0.12506   0.14387   0.20955

 Mulliken charges and spin densities:
               1          2
     1  Co   0.988045   2.935601
     2  O   -0.988045   0.064399
 Sum of Mulliken charges =  -0.00000   3.00000

 Dipole moment (field-independent basis, Debye):
    X=              0.0000    Y=              0.0000    Z=              7.8381  Tot=              7.8381
 Quadrupole moment (field-independent basis, Debye-Ang):
   XX=            -18.9240   YY=            -18.9240   ZZ=            -22.1163
   XY=              0.0000   XZ=              0.0000   YZ=              0.0000

 \\#P ROCCSD(T)=(MaxCyc=150, Full)/Gen SCF=(maxcycle=400) Pseudo=Read I
 .7796933\MP4SDQ=-161.751001\CCSD=-161.7431531\CCSD(T)=-161.8009519\RMS
 Normal termination of Gaussian 16 at Sat Mar 31 20:19:27 2018.
