 Gaussian 16, Revision A.03,
 Gaussian 16:  ES64L-G16RevA.03 25-Dec-2016

 ----------------------------------------------------------------------
 #P ROCCSD(T)=(MaxCyc=150, Full)/Gen SCF=(maxcycle=400) Pseudo=Read Int
 egral(NoXCTest) Pop=Regular MaxDisk=500GB Guess=Read IOp(5/15=2)
 ----------------------------------------------------------------------

 ---
 CoO
 ---
 Symbolic Z-matrix:
 Charge =  0 Multiplicity = 4

                         Standard orientation:
 ---------------------------------------------------------------------
 Center     Atomic      Atomic             Coordinates (Angstroms)
 Number     Number       Type             X           Y           Z
 ---------------------------------------------------------------------
      1         27           0        0.000000    0.000000    0.388571
      2          8           0        0.000000    0.000000   -1.311429
 ---------------------------------------------------------------------

 SCF Done:  E(ROHF) =  -160.658716002     A.U. after   24 cycles
 E2 =    -0.1065872303D+01 EUMP2 =    -0.16172458830529D+03
 CCSD(T)
 CCSD(T)= -0.16174845981D+03

 Unable to determine electronic state:  partially filled degenerate orbitals.
 Alpha  occ. eigenvalues --   -4.89307  -3.24856  -3.24744  -3.24744  -1.16019
 Alpha  occ. eigenvalues --   -0.77091  -0.77091  -0.76428  -0.71371  -0.68890
 Alpha  occ. eigenvalues --   -0.38559  -0.38559  -0.35697
 Alpha virt. eigenvalues --   -0.04861   0.02060   0.02060   0.02221   0.04167
 Alpha virt. eigenvalues --    0.07698   0.07698   0.09858   0.10729   0.10756
 Alpha virt. eigenvalues --    0.11641   0.11641   0.14772   0.15376   0.26001

 Mulliken charges and spin densities:
               1          2
     1  Co   1.025606   2.935509
     2  O   -1.025606   0.064491
 Sum of Mulliken charges =  -0.00000   3.00000

 Dipole moment (field-independent basis, Debye):
    X=              0.0000    Y=              0.0000    Z=              7.8507  Tot=              7.8507
 Quadrupole moment (field-independent basis, Debye-Ang):
   XX=            -18.9282   YY=            -18.9282   ZZ=            -22.1352
   XY=              0.0000   XZ=              0.0000   YZ=              0.0000

 \\#P ROCCSD(T)=(MaxCyc=150, Full)/Gen SCF=(maxcycle=400) Pseudo=Read I
 5883\MP4SDQ=-161.7016249\CCSD=-161.6928998\CCSD(T)=-161.7484598\RMSD=8
 Normal termination of Gaussian 16 at Sat Mar 31 17:57:09 2018.
