 Gaussian 16, Revision A.03,
 Gaussian 16:  ES64L-G16RevA.03 25-Dec-2016

 ----------------------------------------------------------------------
 #P ROCCSD(T)=(maxcyc=150, Full)/Gen 5d 7f SCF=(maxcycles=300) Integral
 (NoXCTest) MaxDisk=500GB Pop=Regular Pseudo=Read IOp(5/15=2) Guess=Rea
 d
 ----------------------------------------------------------------------

 ---
 ScH
 ---
 Symbolic Z-matrix:
 Charge =  0 Multiplicity = 1

                         Standard orientation:
 ---------------------------------------------------------------------
 Center     Atomic      Atomic             Coordinates (Angstroms)
 Number     Number       Type             X           Y           Z
 ---------------------------------------------------------------------
      1         21           0        0.000000    0.000000    0.050000
      2          1           0        0.000000    0.000000   -1.050000
 ---------------------------------------------------------------------

 SCF Done:  E(ROHF) =  -46.4164743000     A.U. after   11 cycles
 E2 =    -0.4326941881D+00 EUMP2 =    -0.46849168488037D+02
 CCSD(T)
 CCSD(T)= -0.46885740262D+02

 The electronic state is 1-SG.
 Alpha  occ. eigenvalues --   -2.61343  -1.64759  -1.57675  -1.57675  -0.47417
 Alpha  occ. eigenvalues --   -0.21317
 Alpha virt. eigenvalues --    0.01285   0.01342   0.01342   0.02064   0.02882
 Alpha virt. eigenvalues --    0.02882   0.02896   0.02908   0.02908   0.04224
 Alpha virt. eigenvalues --    0.04517   0.04517   0.08262   0.08262   0.08319

 Mulliken charges and spin densities:
               1          2
     1  Sc   0.175443   0.000000
     2  H   -0.175443   0.000000
 Sum of Mulliken charges =  -0.00000   0.00000

 Dipole moment (field-independent basis, Debye):
    X=              0.0000    Y=              0.0000    Z=              0.9998  Tot=              0.9998
 Quadrupole moment (field-independent basis, Debye-Ang):
   XX=            -23.6847   YY=            -23.6847   ZZ=            -22.1813
   XY=              0.0000   XZ=              0.0000   YZ=              0.0000

 P ROCCSD(T)=(maxcyc=150, Full)/Gen 5d 7f SCF=(maxcycles=300) Integral(
 PMP2-0=-46.8491685\MP4SDQ=-46.8679161\CCSD=-46.8675884\CCSD(T)=-46.885
 Normal termination of Gaussian 16 at Tue Feb 13 17:23:11 2018.
