 Gaussian 16, Revision A.03,
 Gaussian 16:  ES64L-G16RevA.03 25-Dec-2016

 ----------------------------------------------------------------------
 #P ROCCSD(T)=(maxcyc=150, Full, SaveAmplitudes, ReadAmplitudes)/Gen 5d
  7f SCF=(maxcycles=300) Integral(NoXCTest) MaxDisk=500GB Pop=Regular P
 seudo=Read Guess=Read
 ----------------------------------------------------------------------

 ---
 MnO
 ---
 Symbolic Z-matrix:
 Charge =  0 Multiplicity = 6

                         Standard orientation:
 ---------------------------------------------------------------------
 Center     Atomic      Atomic             Coordinates (Angstroms)
 Number     Number       Type             X           Y           Z
 ---------------------------------------------------------------------
      1         25           0        0.000000    0.000000    0.412121
      2          8           0        0.000000    0.000000   -1.287879
 ---------------------------------------------------------------------

 SCF Done:  E(ROHF) =  -119.358902417     A.U. after   24 cycles
 E2 =    -0.9490928032D+00 EUMP2 =    -0.12030799522005D+03
 CCSD(T)
 CCSD(T)= -0.12033745104D+03

 The electronic state is 6-SG.
 Alpha  occ. eigenvalues --   -4.08916  -2.75221  -2.75221  -2.74729  -1.11847
 Alpha  occ. eigenvalues --   -0.64192  -0.64192  -0.63470  -0.63470  -0.59605
 Alpha  occ. eigenvalues --   -0.33983  -0.33708  -0.33708
 Alpha virt. eigenvalues --   -0.04820   0.01319   0.01319   0.01539   0.03378
 Alpha virt. eigenvalues --    0.05758   0.05758   0.05844   0.05844   0.06365
 Alpha virt. eigenvalues --    0.07063   0.07063   0.11309   0.12632   0.17820

 Mulliken charges and spin densities:
               1          2
     1  Mn   1.183573   4.909539
     2  O   -1.183573   0.090461
 Sum of Mulliken charges =  -0.00000   5.00000

 Dipole moment (field-independent basis, Debye):
    X=              0.0000    Y=              0.0000    Z=              9.1998  Tot=              9.1998
 Quadrupole moment (field-independent basis, Debye-Ang):
   XX=            -18.7807   YY=            -18.7807   ZZ=            -23.7068
   XY=              0.0000   XZ=              0.0000   YZ=              0.0000

 \\#P ROCCSD(T)=(maxcyc=150, Full, SaveAmplitudes, ReadAmplitudes)/Gen
 9.3589024\PMP2-0=-120.3079952\CCSD=-120.2938876\CCSD(T)=-120.337451\RM
 Normal termination of Gaussian 16 at Wed Mar 14 04:32:53 2018.
