 Gaussian 16, Revision A.03,
 Gaussian 16:  ES64L-G16RevA.03 25-Dec-2016

 ----------------------------------------------------------------------
 #P ROHF/Gen 5d 7f SCF=(maxcycles=300) Integral(NoXCTest) MaxDisk=500GB
  Pop=Regular Pseudo=Read Guess=(Read,Permute) IOp(5/15=2)
 ----------------------------------------------------------------------

 ---
 MnO
 ---
 Symbolic Z-matrix:
 Charge =  0 Multiplicity = 6

                         Standard orientation:
 ---------------------------------------------------------------------
 Center     Atomic      Atomic             Coordinates (Angstroms)
 Number     Number       Type             X           Y           Z
 ---------------------------------------------------------------------
      1         25           0        0.000000    0.000000    0.387879
      2          8           0        0.000000    0.000000   -1.212121
 ---------------------------------------------------------------------

 SCF Done:  E(ROHF) =  -119.158001911     A.U. after   29 cycles

 The electronic state is 6-SG.
 Alpha  occ. eigenvalues --   -3.87383  -2.47312  -2.45884  -2.45884  -1.12599
 Alpha  occ. eigenvalues --   -0.40042  -0.38916  -0.38916  -0.09513  -0.09513
 Alpha  occ. eigenvalues --   -0.07874  -0.07425  -0.07425
 Alpha virt. eigenvalues --   -0.02205   0.01978   0.01978   0.02709   0.03901
 Alpha virt. eigenvalues --    0.07395   0.07395   0.08529   0.08619   0.08619
 Alpha virt. eigenvalues --    0.10000   0.10000   0.14046   0.14421   0.24629

 Mulliken charges and spin densities:
               1          2
     1  Mn   1.133852   4.851596
     2  O   -1.133852   0.148404
 Sum of Mulliken charges =  -0.00000   5.00000

 Dipole moment (field-independent basis, Debye):
    X=              0.0000    Y=              0.0000    Z=              8.2711  Tot=              8.2711
 Quadrupole moment (field-independent basis, Debye-Ang):
   XX=            -18.8305   YY=            -18.8305   ZZ=            -23.0097
   XY=              0.0000   XZ=              0.0000   YZ=              0.0000

 Normal termination of Gaussian 16 at Fri Mar  9 16:03:24 2018.
