 Gaussian 16, Revision A.03,
 Gaussian 16:  ES64L-G16RevA.03 25-Dec-2016

 ----------------------------------------------------------------------
 #P ROCCSD(T)=(maxcyc=150, Full, SaveAmplitudes, ReadAmplitudes)/Gen 5d
  7f SCF=(maxcycles=300) Integral(NoXCTest) MaxDisk=500GB Pop=Regular P
 seudo=Read Guess=Read IOp(5/15=2)
 ----------------------------------------------------------------------

 ---
 CrH
 ---
 Symbolic Z-matrix:
 Charge =  0 Multiplicity = 6

                         Standard orientation:
 ---------------------------------------------------------------------
 Center     Atomic      Atomic             Coordinates (Angstroms)
 Number     Number       Type             X           Y           Z
 ---------------------------------------------------------------------
      1         24           0        0.000000    0.000000    0.080000
      2          1           0        0.000000    0.000000   -1.920000
 ---------------------------------------------------------------------

 SCF Done:  E(ROHF) =  -86.3642513258     A.U. after   29 cycles
 E2 =    -0.5106560924D+00 EUMP2 =    -0.86874907418264D+02
 CCSD(T)
 CCSD(T)= -0.86918694950D+02

 The electronic state is 6-SG.
 Alpha  occ. eigenvalues --   -3.88159  -2.60071  -2.60071  -2.55247  -0.53017
 Alpha  occ. eigenvalues --   -0.53017  -0.49887  -0.49887  -0.38625  -0.27622
 Alpha virt. eigenvalues --    0.00974   0.00974   0.02209   0.02660   0.05115
 Alpha virt. eigenvalues --    0.05115   0.05434   0.07550   0.07550   0.08001
 Alpha virt. eigenvalues --    0.08001   0.09174   0.10413   0.16605   0.20099

 Mulliken charges and spin densities:
               1          2
     1  Cr   0.344750   4.974064
     2  H   -0.344750   0.025936
 Sum of Mulliken charges =  -0.00000   5.00000

 Dipole moment (field-independent basis, Debye):
    X=              0.0000    Y=              0.0000    Z=              2.8450  Tot=              2.8450
 Quadrupole moment (field-independent basis, Debye-Ang):
   XX=            -17.4425   YY=            -17.4425   ZZ=            -26.7994
   XY=              0.0000   XZ=              0.0000   YZ=              0.0000

 \\#P ROCCSD(T)=(maxcyc=150, Full, SaveAmplitudes, ReadAmplitudes)/Gen
 6\CCSD=-86.9024828\CCSD(T)=-86.918695\RMSD=7.493e-10\PG=C*V [C*(H1Cr1)
 Normal termination of Gaussian 16 at Mon Feb 26 18:07:51 2018.
