 Gaussian 16, Revision A.03,
 Gaussian 16:  ES64L-G16RevA.03 25-Dec-2016

 ----------------------------------------------------------------------
 #P ROCCSD(T)=(maxcyc=150, Full, SaveAmplitudes, ReadAmplitudes)/Gen 5d
  7f SCF=(maxcycles=300) Integral(NoXCTest) MaxDisk=500GB Pop=Regular P
 seudo=Read Guess=Read IOp(5/15=2)
 ----------------------------------------------------------------------

 ---
 ScO
 ---
 Symbolic Z-matrix:
 Charge =  0 Multiplicity = 2

                         Standard orientation:
 ---------------------------------------------------------------------
 Center     Atomic      Atomic             Coordinates (Angstroms)
 Number     Number       Type             X           Y           Z
 ---------------------------------------------------------------------
      1         21           0        0.000000    0.000000    0.331034
      2          8           0        0.000000    0.000000   -0.868966
 ---------------------------------------------------------------------

 SCF Done:  E(ROHF) =  -61.5149036459     A.U. after   19 cycles
 E2 =    -0.6506472079D+00 EUMP2 =    -0.62165550853721D+02
 CCSD(T)
 CCSD(T)= -0.62196222480D+02

 The electronic state is 2-SG.
 Alpha  occ. eigenvalues --   -2.61870  -1.82205  -1.52466  -1.52466  -1.03917
 Alpha  occ. eigenvalues --   -0.63910  -0.63910  -0.47730  -0.17834
 Alpha virt. eigenvalues --    0.01029   0.01029   0.01780   0.02780   0.03766
 Alpha virt. eigenvalues --    0.03766   0.03800   0.03800   0.03862   0.04921
 Alpha virt. eigenvalues --    0.04921   0.07195   0.11093   0.11093   0.11183

 Mulliken charges and spin densities:
               1          2
     1  Sc   1.121597   1.028002
     2  O   -1.121597  -0.028002
 Sum of Mulliken charges =  -0.00000   1.00000

 Dipole moment (field-independent basis, Debye):
    X=              0.0000    Y=              0.0000    Z=             -1.2368  Tot=              1.2368
 Quadrupole moment (field-independent basis, Debye-Ang):
   XX=            -23.6049   YY=            -23.6049   ZZ=            -29.0572
   XY=              0.0000   XZ=              0.0000   YZ=              0.0000

 \\#P ROCCSD(T)=(maxcyc=150, Full, SaveAmplitudes, ReadAmplitudes)/Gen
 58\CCSD=-62.1691545\CCSD(T)=-62.1962225\RMSD=9.694e-10\PG=C*V [C*(O1Sc
 Normal termination of Gaussian 16 at Tue Feb 20 21:15:46 2018.
