 Gaussian 16, Revision A.03,
 Gaussian 16:  ES64L-G16RevA.03 25-Dec-2016

 ----------------------------------------------------------------------
 #P ROCCSD(T)=(MaxCyc=150, Full)/Gen SCF=(maxcycle=400) Pseudo=Read Int
 egral(NoXCTest) Pop=Regular MaxDisk=500GB Guess=Read IOp(5/15=2)
 ----------------------------------------------------------------------

 --
 Cu
 --
 Symbolic Z-matrix:
 Charge =  0 Multiplicity = 2

                         Standard orientation:
 ---------------------------------------------------------------------
 Center     Atomic      Atomic             Coordinates (Angstroms)
 Number     Number       Type             X           Y           Z
 ---------------------------------------------------------------------
      1         29           0        0.000000    0.000000    0.000000
 ---------------------------------------------------------------------

 SCF Done:  E(ROHF) =  -195.978707302     A.U. after   10 cycles
 E2 =    -0.1131885811D+01 EUMP2 =    -0.19711059311227D+03
 CCSD(T)
 CCSD(T)= -0.19702462745D+03

 The electronic state is 2-A1G.
 Alpha  occ. eigenvalues --   -5.23143  -3.34856  -3.34856  -3.34856  -0.48462
 Alpha  occ. eigenvalues --   -0.48462  -0.48462  -0.48462  -0.48462  -0.24435
 Alpha virt. eigenvalues --    0.02241   0.02241   0.02241   0.02718   0.07487
 Alpha virt. eigenvalues --    0.07487   0.07487   0.12335   0.12335   0.12335
 Alpha virt. eigenvalues --    0.12335   0.12335   0.13391   0.24272   0.24272

 Mulliken charges and spin densities:
               1          2
     1  Cu  -0.000000   1.000000
 Sum of Mulliken charges =  -0.00000   1.00000

 Dipole moment (field-independent basis, Debye):
    X=              0.0000    Y=              0.0000    Z=              0.0000  Tot=              0.0000
 Quadrupole moment (field-independent basis, Debye-Ang):
   XX=            -14.0263   YY=            -14.0263   ZZ=            -14.0263
   XY=             -0.0000   XZ=              0.0000   YZ=              0.0000

 1\1\GINC-C402-084\SP\ROCCSD(T)-Full\Gen\Cu1(2)\GWANG18\05-May-2018\0\\
 #P ROCCSD(T)=(MaxCyc=150, Full)/Gen SCF=(maxcycle=400) Pseudo=Read Int
 egral(NoXCTest) Pop=Regular MaxDisk=500GB Guess=Read IOp(5/15=2)\\Cu\\
 0,2\Cu,0,0.,0.,0.\\Version=ES64L-G16RevA.03\State=2-A1G\HF=-195.978707
 3\MP2=-197.1105931\MP3=-196.9123858\PUHF=-195.9787073\PMP2-0=-197.1105
 931\MP4SDQ=-197.0541756\CCSD=-196.9883491\CCSD(T)=-197.0246274\RMSD=1.
 679e-09\PG=OH [O(Cu1)]\\@

 Normal termination of Gaussian 16 at Sat May  5 21:54:42 2018.
