 Gaussian 16, Revision A.03,
 Gaussian 16:  ES64L-G16RevA.03 25-Dec-2016

 ----------------------------------------------------------------------
 #P ROCCSD(T)=(MaxCyc=150, Full)/Gen SCF=(maxcycle=400) Pseudo=Read Int
 egral(NoXCTest) Pop=Regular MaxDisk=500GB Guess=Read IOp(5/15=2)
 ----------------------------------------------------------------------

 --
 Cu
 --
 Symbolic Z-matrix:
 Charge =  0 Multiplicity = 2

                         Standard orientation:
 ---------------------------------------------------------------------
 Center     Atomic      Atomic             Coordinates (Angstroms)
 Number     Number       Type             X           Y           Z
 ---------------------------------------------------------------------
      1         29           0        0.000000    0.000000    0.000000
 ---------------------------------------------------------------------

 SCF Done:  E(ROHF) =  -195.978887444     A.U. after   13 cycles
 E2 =    -0.1107210552D+01 EUMP2 =    -0.19708609799625D+03
 CCSD(T)
 CCSD(T)= -0.19700213956D+03

 The electronic state is 2-A1G.
 Alpha  occ. eigenvalues --   -5.23138  -3.34853  -3.34853  -3.34853  -0.48461
 Alpha  occ. eigenvalues --   -0.48461  -0.48461  -0.48461  -0.48461  -0.24435
 Alpha virt. eigenvalues --    0.02292   0.02292   0.02292   0.03413   0.07790
 Alpha virt. eigenvalues --    0.07790   0.07790   0.13687   0.13687   0.13687
 Alpha virt. eigenvalues --    0.13687   0.13687   0.18300   0.25921   0.25921

 Mulliken charges and spin densities:
               1          2
     1  Cu  -0.000000   1.000000
 Sum of Mulliken charges =  -0.00000   1.00000

 Dipole moment (field-independent basis, Debye):
    X=              0.0000    Y=              0.0000    Z=              0.0000  Tot=              0.0000
 Quadrupole moment (field-independent basis, Debye-Ang):
   XX=            -14.0267   YY=            -14.0267   ZZ=            -14.0267
   XY=              0.0000   XZ=              0.0000   YZ=             -0.0000

 1\1\GINC-C470-073\SP\ROCCSD(T)-Full\Gen\Cu1(2)\GWANG18\26-Mar-2018\0\\
 #P ROCCSD(T)=(MaxCyc=150, Full)/Gen SCF=(maxcycle=400) Pseudo=Read Int
 egral(NoXCTest) Pop=Regular MaxDisk=500GB Guess=Read IOp(5/15=2)\\Cu\\
 0,2\Cu,0,0.,0.,0.\\Version=ES64L-G16RevA.03\State=2-A1G\HF=-195.978887
 4\MP2=-197.086098\MP3=-196.8901401\PUHF=-195.9788874\PMP2-0=-197.08609
 8\MP4SDQ=-197.0328561\CCSD=-196.9665999\CCSD(T)=-197.0021396\RMSD=7.64
 7e-10\PG=OH [O(Cu1)]\\@

 Normal termination of Gaussian 16 at Mon Mar 26 22:49:38 2018.
