 Gaussian 16, Revision A.03,
 Gaussian 16:  ES64L-G16RevA.03 25-Dec-2016

 ----------------------------------------------------------------------
 #P ROCCSD(T)=(MaxCyc=150, Full)/Gen SCF=(maxcycle=400) Pseudo=Read Int
 egral(NoXCTest) Pop=Regular MaxDisk=500GB Guess=Read IOp(5/15=2)
 ----------------------------------------------------------------------

 --
 Cu
 --
 Symbolic Z-matrix:
 Charge =  0 Multiplicity = 2

                         Standard orientation:
 ---------------------------------------------------------------------
 Center     Atomic      Atomic             Coordinates (Angstroms)
 Number     Number       Type             X           Y           Z
 ---------------------------------------------------------------------
      1         29           0        0.000000    0.000000    0.000000
 ---------------------------------------------------------------------

 SCF Done:  E(ROHF) =  -195.976343228     A.U. after    1 cycles
 E2 =    -0.1056097148D+01 EUMP2 =    -0.19703244037629D+03
 CCSD(T)
 CCSD(T)= -0.19694931201D+03

 The electronic state is 2-A1G.
 Alpha  occ. eigenvalues --   -5.23163  -3.34883  -3.34883  -3.34883  -0.48464
 Alpha  occ. eigenvalues --   -0.48464  -0.48464  -0.48464  -0.48464  -0.24445
 Alpha virt. eigenvalues --    0.02467   0.02467   0.02467   0.03535   0.08967
 Alpha virt. eigenvalues --    0.08967   0.08967   0.18796   0.19888   0.19888
 Alpha virt. eigenvalues --    0.19888   0.19888   0.19888   0.32976   0.32976

 Mulliken charges and spin densities:
               1          2
     1  Cu  -0.000000   1.000000
 Sum of Mulliken charges =  -0.00000   1.00000

 Dipole moment (field-independent basis, Debye):
    X=              0.0000    Y=              0.0000    Z=              0.0000  Tot=              0.0000
 Quadrupole moment (field-independent basis, Debye-Ang):
   XX=            -14.0274   YY=            -14.0274   ZZ=            -14.0274
   XY=             -0.0000   XZ=             -0.0000   YZ=             -0.0000

 1\1\GINC-C470-073\SP\ROCCSD(T)-Full\Gen\Cu1(2)\GWANG18\26-Mar-2018\0\\
 #P ROCCSD(T)=(MaxCyc=150, Full)/Gen SCF=(maxcycle=400) Pseudo=Read Int
 egral(NoXCTest) Pop=Regular MaxDisk=500GB Guess=Read IOp(5/15=2)\\Cu\\
 0,2\Cu,0,0.,0.,0.\\Version=ES64L-G16RevA.03\State=2-A1G\HF=-195.976343
 2\MP2=-197.0324404\MP3=-196.8381596\PUHF=-195.9763432\PMP2-0=-197.0324
 404\MP4SDQ=-196.982795\CCSD=-196.9158563\CCSD(T)=-196.949312\RMSD=7.27
 6e-10\PG=OH [O(Cu1)]\\@

 Normal termination of Gaussian 16 at Mon Mar 26 22:22:44 2018.
