 Gaussian 16, Revision A.03,
 Gaussian 16:  ES64L-G16RevA.03 25-Dec-2016

 ----------------------------------------------------------------------
 #P ROCCSD(T)=(maxcyc=150, Full)/Gen 5d 7f SCF=(maxcycles=300) Integral
 (NoXCTest) MaxDisk=500GB Pop=Regular Pseudo=Read IOp(5/15=2) Guess=Rea
 d
 ----------------------------------------------------------------------

 ---
 ScH
 ---
 Symbolic Z-matrix:
 Charge =  0 Multiplicity = 1

                         Standard orientation:
 ---------------------------------------------------------------------
 Center     Atomic      Atomic             Coordinates (Angstroms)
 Number     Number       Type             X           Y           Z
 ---------------------------------------------------------------------
      1         21           0        0.000000    0.000000    0.077273
      2          1           0        0.000000    0.000000   -1.622727
 ---------------------------------------------------------------------

 SCF Done:  E(ROHF) =  -46.5971200642     A.U. after   11 cycles
 E2 =    -0.4219698458D+00 EUMP2 =    -0.47019089910080D+02
 CCSD(T)
 CCSD(T)= -0.47061252773D+02

 The electronic state is 1-SG.
 Alpha  occ. eigenvalues --   -2.68621  -1.65749  -1.65568  -1.65568  -0.41709
 Alpha  occ. eigenvalues --   -0.22898
 Alpha virt. eigenvalues --    0.01162   0.01162   0.01509   0.01931   0.02859
 Alpha virt. eigenvalues --    0.02859   0.02918   0.02918   0.02939   0.04163
 Alpha virt. eigenvalues --    0.04163   0.04308   0.07469   0.07469   0.07900

 Mulliken charges and spin densities:
               1          2
     1  Sc   0.294190   0.000000
     2  H   -0.294190   0.000000
 Sum of Mulliken charges =  -0.00000   0.00000

 Dipole moment (field-independent basis, Debye):
    X=              0.0000    Y=              0.0000    Z=              1.2367  Tot=              1.2367
 Quadrupole moment (field-independent basis, Debye-Ang):
   XX=            -23.1646   YY=            -23.1646   ZZ=            -26.0166
   XY=              0.0000   XZ=              0.0000   YZ=              0.0000

 P ROCCSD(T)=(maxcyc=150, Full)/Gen 5d 7f SCF=(maxcycles=300) Integral(
 PMP2-0=-47.0190899\MP4SDQ=-47.0423511\CCSD=-47.0421657\CCSD(T)=-47.061
 Normal termination of Gaussian 16 at Wed Feb 14 03:25:09 2018.
