 Gaussian 16, Revision A.03,
 Gaussian 16:  ES64L-G16RevA.03 25-Dec-2016

 ----------------------------------------------------------------------
 #P ROCCSD(T)=(maxcyc=150, Full)/Gen 5d 7f SCF=(maxcycles=300) Integral
 (NoXCTest) MaxDisk=500GB Pop=Regular Pseudo=Read
 ----------------------------------------------------------------------

 ---
 CrH
 ---
 Symbolic Z-matrix:
 Charge =  0 Multiplicity = 6

                         Standard orientation:
 ---------------------------------------------------------------------
 Center     Atomic      Atomic             Coordinates (Angstroms)
 Number     Number       Type             X           Y           Z
 ---------------------------------------------------------------------
      1         24           0        0.000000    0.000000    0.076000
      2          1           0        0.000000    0.000000   -1.824000
 ---------------------------------------------------------------------

 SCF Done:  E(ROHF) =  -86.6901253757     A.U. after   37 cycles
 E2 =    -0.5224308412D+00 EUMP2 =    -0.87212556216963D+02
 CCSD(T)
 CCSD(T)= -0.87264172186D+02

 The electronic state is 6-SG.
 Alpha  occ. eigenvalues --   -3.74456  -2.49963  -2.49963  -2.45058  -0.56882
 Alpha  occ. eigenvalues --   -0.56882  -0.53490  -0.53490  -0.38666  -0.26577
 Alpha virt. eigenvalues --    0.01117   0.01117   0.02243   0.02593   0.05336
 Alpha virt. eigenvalues --    0.05336   0.05486   0.07534   0.07534   0.08005
 Alpha virt. eigenvalues --    0.08005   0.08962   0.10420   0.17097   0.20644

 Mulliken charges and spin densities:
               1          2
     1  Cr   0.385842   4.979784
     2  H   -0.385842   0.020216
 Sum of Mulliken charges =   0.00000   5.00000

 Dipole moment (field-independent basis, Debye):
    X=              0.0000    Y=              0.0000    Z=              2.6832  Tot=              2.6832
 Quadrupole moment (field-independent basis, Debye-Ang):
   XX=            -17.1813   YY=            -17.1813   ZZ=            -25.9932
   XY=              0.0000   XZ=              0.0000   YZ=              0.0000

 \\#P ROCCSD(T)=(maxcyc=150, Full)/Gen 5d 7f SCF=(maxcycles=300) Integr
 P4SDQ=-87.2288501\CCSD=-87.2486901\CCSD(T)=-87.2641722\RMSD=4.866e-09\
 Normal termination of Gaussian 16 at Tue Feb 13 11:31:40 2018.
