 Gaussian 16, Revision A.03,
 Gaussian 16:  ES64L-G16RevA.03 25-Dec-2016

 ----------------------------------------------------------------------
 #P ROCCSD(T)=(maxcyc=150, Full, SaveAmplitudes, ReadAmplitudes)/Gen 5d
  7f SCF=(maxcycles=300) Integral(NoXCTest) MaxDisk=500GB Pop=Regular P
 seudo=Read Guess=Read IOp(5/15=2)
 ----------------------------------------------------------------------

 ---
 MnO
 ---
 Symbolic Z-matrix:
 Charge =  0 Multiplicity = 6

                         Standard orientation:
 ---------------------------------------------------------------------
 Center     Atomic      Atomic             Coordinates (Angstroms)
 Number     Number       Type             X           Y           Z
 ---------------------------------------------------------------------
      1         25           0        0.000000    0.000000    0.436364
      2          8           0        0.000000    0.000000   -1.363636
 ---------------------------------------------------------------------

 SCF Done:  E(ROHF) =  -119.183477957     A.U. after   32 cycles
 E2 =    -0.8876401838D+00 EUMP2 =    -0.12007111814121D+03
 CCSD(T)
 CCSD(T)= -0.12010046473D+03

 The electronic state is 6-SG.
 Alpha  occ. eigenvalues --   -4.17038  -2.81269  -2.81269  -2.80726  -1.10659
 Alpha  occ. eigenvalues --   -0.65171  -0.65171  -0.64891  -0.64891  -0.61695
 Alpha  occ. eigenvalues --   -0.33780  -0.33780  -0.33267
 Alpha virt. eigenvalues --   -0.05231   0.01399   0.01399   0.01642   0.03827
 Alpha virt. eigenvalues --    0.06438   0.06438   0.08194   0.08359   0.08359
 Alpha virt. eigenvalues --    0.09459   0.09459   0.12840   0.14026   0.22656

 Mulliken charges and spin densities:
               1          2
     1  Mn   1.124455   4.927436
     2  O   -1.124455   0.072564
 Sum of Mulliken charges =  -0.00000   5.00000

 Dipole moment (field-independent basis, Debye):
    X=              0.0000    Y=              0.0000    Z=              9.4414  Tot=              9.4414
 Quadrupole moment (field-independent basis, Debye-Ang):
   XX=            -19.0463   YY=            -19.0463   ZZ=            -24.5852
   XY=              0.0000   XZ=              0.0000   YZ=              0.0000

 \\#P ROCCSD(T)=(maxcyc=150, Full, SaveAmplitudes, ReadAmplitudes)/Gen
 69853\CCSD=-120.059804\CCSD(T)=-120.1004647\RMSD=7.751e-09\PG=C*V [C*(
 Normal termination of Gaussian 16 at Fri Mar  9 17:39:17 2018.
