 Gaussian 16, Revision A.03,
 Gaussian 16:  ES64L-G16RevA.03 25-Dec-2016

 ----------------------------------------------------------------------
 #P ROCCSD(T)=(maxcyc=150, Full, SaveAmplitudes, ReadAmplitudes)/Gen 5d
  7f SCF=(maxcycles=300) Integral(NoXCTest) MaxDisk=500GB Pop=Regular P
 seudo=Read Guess=Read
 ----------------------------------------------------------------------

 ---
 TiO
 ---
 Symbolic Z-matrix:
 Charge =  0 Multiplicity = 3

                         Standard orientation:
 ---------------------------------------------------------------------
 Center     Atomic      Atomic             Coordinates (Angstroms)
 Number     Number       Type             X           Y           Z
 ---------------------------------------------------------------------
      1         22           0        0.000000    0.000000    0.506667
      2          8           0        0.000000    0.000000   -1.393333
 ---------------------------------------------------------------------

 SCF Done:  E(ROHF) =  -73.2143531138     A.U. after   22 cycles
 E2 =    -0.7873388722D+00 EUMP2 =    -0.74001691986013D+02
 CCSD(T)
 CCSD(T)= -0.74036207775D+02

 Unable to determine electronic state:  an orbital has unidentified symmetry.
 Alpha  occ. eigenvalues --   -3.07156  -1.98094  -1.98094  -1.93507  -1.11466
 Alpha  occ. eigenvalues --   -0.52375  -0.41402  -0.37439  -0.37439  -0.29752
 Alpha virt. eigenvalues --   -0.00946  -0.00946  -0.00016   0.01839   0.02861
 Alpha virt. eigenvalues --    0.02861   0.03177   0.03503   0.03674   0.04399
 Alpha virt. eigenvalues --    0.04399   0.04777   0.06446   0.09749   0.09846

 Mulliken charges and spin densities:
               1          2
     1  Ti   1.003860   1.977010
     2  O   -1.003860   0.022990
 Sum of Mulliken charges =  -0.00000   2.00000

 Dipole moment (field-independent basis, Debye):
    X=              0.0000    Y=              0.0000    Z=              7.0498  Tot=              7.0498
 Quadrupole moment (field-independent basis, Debye-Ang):
   XX=            -21.7795   YY=            -21.7795   ZZ=            -30.6653
   XY=              0.0000   XZ=              0.0000   YZ=              0.0000

 \\#P ROCCSD(T)=(maxcyc=150, Full, SaveAmplitudes, ReadAmplitudes)/Gen
 0=-74.001692\CCSD=-73.9774878\CCSD(T)=-74.0362078\RMSD=5.173e-09\PG=C*
 Normal termination of Gaussian 16 at Sat Mar 10 03:37:33 2018.
