 Gaussian 16, Revision A.03,
 Gaussian 16:  ES64L-G16RevA.03 25-Dec-2016

 ----------------------------------------------------------------------
 #P ROCCSD(T)=(maxcyc=150, Full, SaveAmplitudes, ReadAmplitudes)/Gen 5d
  7f SCF=(maxcycles=300) Integral(NoXCTest) MaxDisk=500GB Pop=Regular P
 seudo=Read Guess=Read IOp(5/15=2)
 ----------------------------------------------------------------------

 ---
 MnH
 ---
 Symbolic Z-matrix:
 Charge =  0 Multiplicity = 7

                         Standard orientation:
 ---------------------------------------------------------------------
 Center     Atomic      Atomic             Coordinates (Angstroms)
 Number     Number       Type             X           Y           Z
 ---------------------------------------------------------------------
      1         25           0        0.000000    0.000000    0.073077
      2          1           0        0.000000    0.000000   -1.826923
 ---------------------------------------------------------------------

 SCF Done:  E(ROHF) =  -104.071708201     A.U. after   23 cycles
 E2 =    -0.5644172474D+00 EUMP2 =    -0.10463612544842D+03
 CCSD(T)
 CCSD(T)= -0.10465962706D+03

 The electronic state is 7-SG.
 Alpha  occ. eigenvalues --   -4.25199  -2.80666  -2.80666  -2.80380  -0.65369
 Alpha  occ. eigenvalues --   -0.65369  -0.64727  -0.64666  -0.64666  -0.39434
 Alpha  occ. eigenvalues --   -0.26746
 Alpha virt. eigenvalues --    0.01091   0.01091   0.02330   0.03121   0.05578
 Alpha virt. eigenvalues --    0.05578   0.08088   0.08412   0.08412   0.08900
 Alpha virt. eigenvalues --    0.08900   0.10161   0.13560   0.18681   0.22465

 Mulliken charges and spin densities:
               1          2
     1  Mn   0.428369   5.957200
     2  H   -0.428369   0.042800
 Sum of Mulliken charges =  -0.00000   6.00000

 Dipole moment (field-independent basis, Debye):
    X=              0.0000    Y=              0.0000    Z=              2.0240  Tot=              2.0240
 Quadrupole moment (field-independent basis, Debye-Ang):
   XX=            -16.3893   YY=            -16.3893   ZZ=            -27.4277
   XY=              0.0000   XZ=              0.0000   YZ=              0.0000

 \\#P ROCCSD(T)=(maxcyc=150, Full, SaveAmplitudes, ReadAmplitudes)/Gen
 .6432325\CCSD=-104.6443181\CCSD(T)=-104.6596271\RMSD=6.158e-09\PG=C*V
 Normal termination of Gaussian 16 at Mon Feb 26 16:08:12 2018.
