 Gaussian 16, Revision A.03,
 Gaussian 16:  ES64L-G16RevA.03 25-Dec-2016

 ----------------------------------------------------------------------
 #P ROCCSD(T)=(maxcyc=150, Full)/Gen 5d 7f SCF=(maxcycles=300) Integral
 (NoXCTest, DKHSO) MaxDisk=500GB Pop=Regular IOp(5/15=2) Guess=Read
 ----------------------------------------------------------------------

 ---
 CrH
 ---
 Symbolic Z-matrix:
 Charge =  0 Multiplicity = 6

                         Standard orientation:
 ---------------------------------------------------------------------
 Center     Atomic      Atomic             Coordinates (Angstroms)
 Number     Number       Type             X           Y           Z
 ---------------------------------------------------------------------
      1         24           0        0.000000    0.000000    0.080000
      2          1           0        0.000000    0.000000   -1.920000
 ---------------------------------------------------------------------

 SCF Done:  E(ROHF) =  -1050.19569450     A.U. after   22 cycles
 E2 =    -0.9397559730D+00 EUMP2 =    -0.10511354504683D+04
 CCSD(T)
 CCSD(T)= -0.10511352010D+04

 The electronic state is 6-SG.
 Alpha  occ. eigenvalues -- -222.23481 -26.82806 -22.46203 -22.46203 -22.46197
 Alpha  occ. eigenvalues --   -3.69989  -2.45430  -2.45430  -2.41080  -0.57658
 Alpha  occ. eigenvalues --   -0.57658  -0.54187  -0.54187  -0.37859  -0.26769
 Alpha virt. eigenvalues --    0.00977   0.00977   0.01861   0.02497   0.04521
 Alpha virt. eigenvalues --    0.04752   0.04752   0.05265   0.05265   0.05653
 Alpha virt. eigenvalues --    0.05653   0.06704   0.09668   0.12192   0.15974

 Mulliken charges and spin densities:
               1          2
     1  Cr   0.338325   4.975425
     2  H   -0.338325   0.024575
 Sum of Mulliken charges =  -0.00000   5.00000

 Dipole moment (field-independent basis, Debye):
    X=              0.0000    Y=             -0.0000    Z=              2.9330  Tot=              2.9330
 Quadrupole moment (field-independent basis, Debye-Ang):
   XX=            -17.5470   YY=            -17.5470   ZZ=            -27.3086
   XY=             -0.0000   XZ=              0.0000   YZ=             -0.0000

 \\#P ROCCSD(T)=(maxcyc=150, Full)/Gen 5d 7f SCF=(maxcycles=300) Integr
 Normal termination of Gaussian 16 at Tue Feb 13 20:17:14 2018.
