 Gaussian 16, Revision A.03,
 Gaussian 16:  ES64L-G16RevA.03 25-Dec-2016

 ----------------------------------------------------------------------
 #P ROCCSD(T)=(maxcyc=150, Full, SaveAmplitudes, ReadAmplitudes)/Gen 5d
  7f SCF=(maxcycles=300) Integral(NoXCTest) MaxDisk=500GB Pop=Regular P
 seudo=Read Guess=Read IOp(5/15=2)
 ----------------------------------------------------------------------

 ---
 MnH
 ---
 Symbolic Z-matrix:
 Charge =  0 Multiplicity = 7

                         Standard orientation:
 ---------------------------------------------------------------------
 Center     Atomic      Atomic             Coordinates (Angstroms)
 Number     Number       Type             X           Y           Z
 ---------------------------------------------------------------------
      1         25           0        0.000000    0.000000    0.050000
      2          1           0        0.000000    0.000000   -1.250000
 ---------------------------------------------------------------------

 SCF Done:  E(ROHF) =  -104.183272865     A.U. after   27 cycles
 E2 =    -0.6025141747D+00 EUMP2 =    -0.10478578703954D+03
 CCSD(T)
 CCSD(T)= -0.10480741678D+03

 The electronic state is 7-SG.
 Alpha  occ. eigenvalues --   -4.09127  -2.75641  -2.75003  -2.75003  -0.66239
 Alpha  occ. eigenvalues --   -0.63092  -0.63092  -0.62894  -0.62894  -0.41647
 Alpha  occ. eigenvalues --   -0.24578
 Alpha virt. eigenvalues --    0.01353   0.01353   0.02152   0.03265   0.05796
 Alpha virt. eigenvalues --    0.05796   0.08529   0.08529   0.08616   0.08962
 Alpha virt. eigenvalues --    0.08962   0.09068   0.14156   0.21571   0.22572

 Mulliken charges and spin densities:
               1          2
     1  Mn   0.459683   5.948017
     2  H   -0.459683   0.051983
 Sum of Mulliken charges =  -0.00000   6.00000

 Dipole moment (field-independent basis, Debye):
    X=              0.0000    Y=              0.0000    Z=             -0.0035  Tot=              0.0035
 Quadrupole moment (field-independent basis, Debye-Ang):
   XX=            -15.8302   YY=            -15.8302   ZZ=            -25.1124
   XY=              0.0000   XZ=              0.0000   YZ=              0.0000

 \\#P ROCCSD(T)=(maxcyc=150, Full, SaveAmplitudes, ReadAmplitudes)/Gen
 893092\CCSD=-104.7902671\CCSD(T)=-104.8074168\RMSD=7.379e-09\PG=C*V [C
 Normal termination of Gaussian 16 at Mon Feb 26 01:01:32 2018.
