 Gaussian 16, Revision A.03,
 Gaussian 16:  ES64L-G16RevA.03 25-Dec-2016

 ----------------------------------------------------------------------
 #P ROCCSD(T)=(maxcyc=150, Full)/Gen 5d 7f SCF=(maxcycles=300) Integral
 (NoXCTest) MaxDisk=500GB Pop=Regular Pseudo=Read
 ----------------------------------------------------------------------

 ---
 CrH
 ---
 Symbolic Z-matrix:
 Charge =  0 Multiplicity = 6

                         Standard orientation:
 ---------------------------------------------------------------------
 Center     Atomic      Atomic             Coordinates (Angstroms)
 Number     Number       Type             X           Y           Z
 ---------------------------------------------------------------------
      1         24           0        0.000000    0.000000    0.072000
      2          1           0        0.000000    0.000000   -1.728000
 ---------------------------------------------------------------------

 SCF Done:  E(ROHF) =  -86.6936207745     A.U. after   37 cycles
 E2 =    -0.5264928526D+00 EUMP2 =    -0.87220113627150D+02
 CCSD(T)
 CCSD(T)= -0.87269777968D+02

 The electronic state is 6-SG.
 Alpha  occ. eigenvalues --   -3.73394  -2.48903  -2.48903  -2.44118  -0.55779
 Alpha  occ. eigenvalues --   -0.55779  -0.52485  -0.52485  -0.39621  -0.26322
 Alpha virt. eigenvalues --    0.01212   0.01212   0.02267   0.02553   0.05438
 Alpha virt. eigenvalues --    0.05438   0.05624   0.07577   0.07577   0.08029
 Alpha virt. eigenvalues --    0.08029   0.08891   0.10379   0.17441   0.20828

 Mulliken charges and spin densities:
               1          2
     1  Cr   0.416487   4.981462
     2  H   -0.416487   0.018538
 Sum of Mulliken charges =  -0.00000   5.00000

 Dipole moment (field-independent basis, Debye):
    X=              0.0000    Y=              0.0000    Z=              2.4273  Tot=              2.4273
 Quadrupole moment (field-independent basis, Debye-Ang):
   XX=            -17.1072   YY=            -17.1072   ZZ=            -25.0665
   XY=              0.0000   XZ=              0.0000   YZ=              0.0000

 \\#P ROCCSD(T)=(maxcyc=150, Full)/Gen 5d 7f SCF=(maxcycles=300) Integr
 P4SDQ=-87.2357092\CCSD=-87.2537533\CCSD(T)=-87.269778\RMSD=7.334e-09\P
 Normal termination of Gaussian 16 at Tue Feb 13 09:11:06 2018.
