 Gaussian 16, Revision A.03,
 Gaussian 16:  ES64L-G16RevA.03 25-Dec-2016

 ----------------------------------------------------------------------
 #P ROCCSD(T)=(maxcyc=100, Full)/Gen SCF=(maxcycle=400, symm) Pseudo=Re
 ad Integral(NoXCTest) Pop=Regular MaxDisk=500GB Guess=Permute IOp(5/15
 =2)
 ----------------------------------------------------------------------

 ---
 FeH
 ---
 Symbolic Z-matrix:
 Charge =  0 Multiplicity = 4

                         Standard orientation:
 ---------------------------------------------------------------------
 Center     Atomic      Atomic             Coordinates (Angstroms)
 Number     Number       Type             X           Y           Z
 ---------------------------------------------------------------------
      1         26           0        0.000000    0.000000    0.062963
      2          1           0        0.000000    0.000000   -1.637037
 ---------------------------------------------------------------------

 SCF Done:  E(ROHF) =  -123.587738700     A.U. after   26 cycles
 E2 =    -0.8046983702D+00 EUMP2 =    -0.12439243707033D+03
 CCSD(T)
 CCSD(T)= -0.12440029581D+03

 Unable to determine electronic state:  an orbital has unidentified symmetry.
 Alpha  occ. eigenvalues --   -4.17059  -2.75352  -2.74898  -2.74898  -0.49166
 Alpha  occ. eigenvalues --   -0.49166  -0.48662  -0.43550  -0.43246  -0.31929
 Alpha virt. eigenvalues --   -0.00700   0.02158   0.02158   0.03015   0.03712
 Alpha virt. eigenvalues --    0.06222   0.06748   0.06762   0.06863   0.06863
 Alpha virt. eigenvalues --    0.07684   0.07684   0.10024   0.16020   0.17822

 Mulliken charges and spin densities:
               1          2
     1  Fe   0.338410   2.997619
     2  H   -0.338410   0.002381
 Sum of Mulliken charges =  -0.00000   3.00000

 Dipole moment (field-independent basis, Debye):
    X=              0.0000    Y=              0.0000    Z=              4.7159  Tot=              4.7159
 Quadrupole moment (field-independent basis, Debye-Ang):
   XX=            -15.4042   YY=            -15.4042   ZZ=            -18.1265
   XY=              0.0000   XZ=              0.0000   YZ=              0.0000

 \\#P ROCCSD(T)=(maxcyc=100, Full)/Gen SCF=(maxcycle=400, symm) Pseudo=
 3723246\CCSD(T)=-124.4002958\RMSD=2.917e-09\PG=C*V [C*(H1Fe1)]\\@
 Normal termination of Gaussian 16 at Mon Feb 12 21:03:05 2018.
