 Gaussian 16, Revision A.03,
 Gaussian 16:  ES64L-G16RevA.03 25-Dec-2016

 ----------------------------------------------------------------------
 #P ROCCSD(T)=(maxcyc=100, Full)/Gen SCF=(maxcycle=400, symm) Pseudo=Re
 ad Integral(NoXCTest) Pop=Regular MaxDisk=500GB Guess=Permute IOp(5/15
 =2)
 ----------------------------------------------------------------------

 ---
 FeH
 ---
 Symbolic Z-matrix:
 Charge =  0 Multiplicity = 4

                         Standard orientation:
 ---------------------------------------------------------------------
 Center     Atomic      Atomic             Coordinates (Angstroms)
 Number     Number       Type             X           Y           Z
 ---------------------------------------------------------------------
      1         26           0        0.000000    0.000000    0.062963
      2          1           0        0.000000    0.000000   -1.637037
 ---------------------------------------------------------------------

 SCF Done:  E(ROHF) =  -123.586632597     A.U. after   33 cycles
 E2 =    -0.7691003586D+00 EUMP2 =    -0.12435573295583D+03
 CCSD(T)
 CCSD(T)= -0.12436569902D+03

 Unable to determine electronic state:  an orbital has unidentified symmetry.
 Alpha  occ. eigenvalues --   -4.17108  -2.75372  -2.74915  -2.74915  -0.49161
 Alpha  occ. eigenvalues --   -0.49161  -0.48655  -0.43543  -0.43234  -0.31926
 Alpha virt. eigenvalues --   -0.00687   0.02395   0.02395   0.03298   0.03987
 Alpha virt. eigenvalues --    0.08378   0.08378   0.09527   0.10166   0.10207
 Alpha virt. eigenvalues --    0.10384   0.10384   0.10887   0.17084   0.23250

 Mulliken charges and spin densities:
               1          2
     1  Fe   0.428131   2.997649
     2  H   -0.428131   0.002351
 Sum of Mulliken charges =   0.00000   3.00000

 Dipole moment (field-independent basis, Debye):
    X=              0.0000    Y=              0.0000    Z=              4.7205  Tot=              4.7205
 Quadrupole moment (field-independent basis, Debye-Ang):
   XX=            -15.4197   YY=            -15.4197   ZZ=            -18.1159
   XY=              0.0000   XZ=              0.0000   YZ=              0.0000

 \\#P ROCCSD(T)=(maxcyc=100, Full)/Gen SCF=(maxcycle=400, symm) Pseudo=
 99791\CCSD(T)=-124.365699\RMSD=6.661e-09\PG=C*V [C*(H1Fe1)]\\@
 Normal termination of Gaussian 16 at Mon Feb 12 20:23:05 2018.
