 Gaussian 16, Revision A.03,
 Gaussian 16:  ES64L-G16RevA.03 25-Dec-2016

 ----------------------------------------------------------------------
 #P ROCCSD(T)=(maxcyc=100, Full)/Gen SCF=(maxcycle=400, symm) Pseudo=Re
 ad Integral(NoXCTest) Pop=Regular MaxDisk=500GB Guess=Permute IOp(5/15
 =2)
 ----------------------------------------------------------------------

 ---
 FeH
 ---
 Symbolic Z-matrix:
 Charge =  0 Multiplicity = 4

                         Standard orientation:
 ---------------------------------------------------------------------
 Center     Atomic      Atomic             Coordinates (Angstroms)
 Number     Number       Type             X           Y           Z
 ---------------------------------------------------------------------
      1         26           0        0.000000    0.000000    0.062963
      2          1           0        0.000000    0.000000   -1.637037
 ---------------------------------------------------------------------

 SCF Done:  E(ROHF) =  -123.588315573     A.U. after   27 cycles
 E2 =    -0.8188704950D+00 EUMP2 =    -0.12440718606822D+03
 CCSD(T)
 CCSD(T)= -0.12441297554D+03

 Unable to determine electronic state:  an orbital has unidentified symmetry.
 Alpha  occ. eigenvalues --   -4.17077  -2.75347  -2.74893  -2.74893  -0.49163
 Alpha  occ. eigenvalues --   -0.49163  -0.48659  -0.43552  -0.43249  -0.31930
 Alpha virt. eigenvalues --   -0.00721   0.02092   0.02092   0.02676   0.03211
 Alpha virt. eigenvalues --    0.05758   0.06181   0.06193   0.06355   0.06355
 Alpha virt. eigenvalues --    0.07324   0.07324   0.08756   0.12810   0.16281

 Mulliken charges and spin densities:
               1          2
     1  Fe   0.291846   2.996570
     2  H   -0.291846   0.003430
 Sum of Mulliken charges =  -0.00000   3.00000

 Dipole moment (field-independent basis, Debye):
    X=              0.0000    Y=              0.0000    Z=              4.7151  Tot=              4.7151
 Quadrupole moment (field-independent basis, Debye-Ang):
   XX=            -15.4018   YY=            -15.4018   ZZ=            -18.1293
   XY=              0.0000   XZ=              0.0000   YZ=              0.0000

 \\#P ROCCSD(T)=(maxcyc=100, Full)/Gen SCF=(maxcycle=400, symm) Pseudo=
 842099\CCSD(T)=-124.4129755\RMSD=1.437e-09\PG=C*V [C*(H1Fe1)]\\@
 Normal termination of Gaussian 16 at Mon Feb 12 22:46:18 2018.
