 Gaussian 16, Revision A.03,
 Gaussian 16:  ES64L-G16RevA.03 25-Dec-2016

 ----------------------------------------------------------------------
 #P ROCCSD(T)=(MaxCyc=150, Full)/Gen SCF=(maxcycle=400, vshift=200) Int
 egral(DKHSO, NoXCTest) Pop=Regular MaxDisk=500GB Guess=Read IOp(5/15=2
 )
 ----------------------------------------------------------------------

 ---
 ZnH
 ---
 Symbolic Z-matrix:
 Charge =  0 Multiplicity = 2

                         Standard orientation:
 ---------------------------------------------------------------------
 Center     Atomic      Atomic             Coordinates (Angstroms)
 Number     Number       Type             X           Y           Z
 ---------------------------------------------------------------------
      1         30           0        0.000000    0.000000    0.054839
      2          1           0        0.000000    0.000000   -1.645161
 ---------------------------------------------------------------------

 SCF Done:  E(ROHF) =  -1794.80335173     A.U. after   17 cycles
 E2 =    -0.1545379092D+01 EUMP2 =    -0.17963487308223D+04
 CCSD(T)
 CCSD(T)= -0.17962761903D+04

 The electronic state is 2-SG.
 Alpha  occ. eigenvalues -- -357.59674 -45.36295 -39.16607 -39.16607 -39.16492
 Alpha  occ. eigenvalues --   -5.83319  -3.91263  -3.91263  -3.91095  -0.80094
 Alpha  occ. eigenvalues --   -0.80094  -0.79841  -0.79596  -0.79596  -0.44676
 Alpha  occ. eigenvalues --   -0.28120
 Alpha virt. eigenvalues --    0.01905   0.01905   0.02835   0.03477   0.06640
 Alpha virt. eigenvalues --    0.06640   0.07795   0.14060   0.16571   0.17922
 Alpha virt. eigenvalues --    0.17922   0.18031   0.18031   0.20970   0.23446

 Mulliken charges and spin densities:
               1          2
     1  Zn   0.312342   0.911719
     2  H   -0.312342   0.088281
 Sum of Mulliken charges =  -0.00000   1.00000

 Dipole moment (field-independent basis, Debye):
    X=              0.0000    Y=              0.0000    Z=              1.0937  Tot=              1.0937
 Quadrupole moment (field-independent basis, Debye-Ang):
   XX=            -14.8955   YY=            -14.8955   ZZ=            -21.7226
   XY=              0.0000   XZ=              0.0000   YZ=              0.0000

 \\#P ROCCSD(T)=(MaxCyc=150, Full)/Gen SCF=(maxcycle=400, vshift=200) I
 \CCSD(T)=-1796.2761903\RMSD=5.543e-09\PG=C*V [C*(H1Zn1)]\\@
 Normal termination of Gaussian 16 at Sat Apr 21 11:04:16 2018.
