 Gaussian 16, Revision A.03,
 Gaussian 16:  ES64L-G16RevA.03 25-Dec-2016

 ----------------------------------------------------------------------
 #P ROCCSD(T)=(maxcyc=150, Full, SaveAmplitudes, ReadAmplitudes)/Gen 5d
  7f SCF=(maxcycles=300) Integral(NoXCTest) MaxDisk=500GB Pop=Regular P
 seudo=Read Guess=Read
 ----------------------------------------------------------------------

 ---
 CrO
 ---
 Symbolic Z-matrix:
 Charge =  0 Multiplicity = 5

                         Standard orientation:
 ---------------------------------------------------------------------
 Center     Atomic      Atomic             Coordinates (Angstroms)
 Number     Number       Type             X           Y           Z
 ---------------------------------------------------------------------
      1         24           0        0.000000    0.000000    0.350000
      2          8           0        0.000000    0.000000   -1.050000
 ---------------------------------------------------------------------

 SCF Done:  E(ROHF) =  -101.984835745     A.U. after   23 cycles
 E2 =    -0.9378949534D+00 EUMP2 =    -0.10292273069879D+03
 CCSD(T)
 CCSD(T)= -0.10293861752D+03

 Unable to determine electronic state:  an orbital has unidentified symmetry.
 Alpha  occ. eigenvalues --   -3.68912  -2.46438  -2.42192  -2.41252  -1.22041
 Alpha  occ. eigenvalues --   -0.65110  -0.56951  -0.53693  -0.53332  -0.51916
 Alpha  occ. eigenvalues --   -0.38634  -0.28703
 Alpha virt. eigenvalues --    0.00975   0.01608   0.02031   0.02721   0.04428
 Alpha virt. eigenvalues --    0.04887   0.05373   0.05375   0.05514   0.05721
 Alpha virt. eigenvalues --    0.06898   0.06922   0.10469   0.13548   0.14051

 Mulliken charges and spin densities:
               1          2
     1  Cr   0.980656   3.879171
     2  O   -0.980656   0.120829
 Sum of Mulliken charges =  -0.00000   4.00000

 Dipole moment (field-independent basis, Debye):
    X=              0.0000    Y=              0.0000    Z=              3.0905  Tot=              3.0905
 Quadrupole moment (field-independent basis, Debye-Ang):
   XX=            -20.9329   YY=            -19.6330   ZZ=            -24.1915
   XY=              0.0000   XZ=              0.0000   YZ=              0.0000

 \\#P ROCCSD(T)=(maxcyc=150, Full, SaveAmplitudes, ReadAmplitudes)/Gen
 MP2-0=-102.9227307\CCSD=-102.8910192\CCSD(T)=-102.9386175\RMSD=2.630e-
 Normal termination of Gaussian 16 at Mon Mar 12 18:04:29 2018.
