 Gaussian 16, Revision A.03,
 Gaussian 16:  ES64L-G16RevA.03 25-Dec-2016

 ----------------------------------------------------------------------
 #P ROCCSD(T)=(maxcyc=150, Full, SaveAmplitudes, ReadAmplitudes)/Gen 5d
  7f SCF=(maxcycles=300, VShift=400) Integral(NoXCTest) MaxDisk=500GB P
 op=Full Pseudo=Read Guess=Read IOp(5/15=2)
 ----------------------------------------------------------------------

 ---
 CrO
 ---
 Symbolic Z-matrix:
 Charge =  0 Multiplicity = 5

                         Standard orientation:
 ---------------------------------------------------------------------
 Center     Atomic      Atomic             Coordinates (Angstroms)
 Number     Number       Type             X           Y           Z
 ---------------------------------------------------------------------
      1         24           0        0.000000    0.000000    0.325000
      2          8           0        0.000000    0.000000   -0.975000
 ---------------------------------------------------------------------

 SCF Done:  E(ROHF) =  -101.594315877     A.U. after   38 cycles
 E2 =    -0.8842448692D+00 EUMP2 =    -0.10247856074638D+03
 CCSD(T)
 CCSD(T)= -0.10249076657D+03

 Unable to determine electronic state:  an orbital has unidentified symmetry.
 Alpha  occ. eigenvalues --   -3.70024  -2.45452  -2.44341  -2.41194  -1.25435
 Alpha  occ. eigenvalues --   -0.69094  -0.60053  -0.59733  -0.51550  -0.51174
 Alpha  occ. eigenvalues --   -0.35553  -0.27034
 Alpha virt. eigenvalues --    0.01340   0.02333   0.02455   0.02870   0.05252
 Alpha virt. eigenvalues --    0.06586   0.07299   0.07733   0.07737   0.07887
 Alpha virt. eigenvalues --    0.08717   0.09849   0.12258   0.17176   0.19333

 Mulliken charges and spin densities:
               1          2
     1  Cr   0.899836   3.768672
     2  O   -0.899836   0.231328
 Sum of Mulliken charges =  -0.00000   4.00000

 Dipole moment (field-independent basis, Debye):
    X=              0.0000    Y=              0.0000    Z=              1.7276  Tot=              1.7276
 Quadrupole moment (field-independent basis, Debye-Ang):
   XX=            -21.4902   YY=            -19.8128   ZZ=            -23.6668
   XY=              0.0000   XZ=              0.0000   YZ=              0.0000

 \\#P ROCCSD(T)=(maxcyc=150, Full, SaveAmplitudes, ReadAmplitudes)/Gen
 667953\CCSD=-102.4487633\CCSD(T)=-102.4907666\RMSD=9.738e-09\PG=C*V [C
 Normal termination of Gaussian 16 at Thu Apr 19 07:57:23 2018.
