 Gaussian 16, Revision A.03,
 Gaussian 16:  ES64L-G16RevA.03 25-Dec-2016

 ----------------------------------------------------------------------
 #P ROCCSD(T)=(maxcyc=150, Full)/Gen 5d 7f SCF=(maxcycles=300) Integral
 (NoXCTest) MaxDisk=500GB Pop=Regular Pseudo=Read Guess=Read
 ----------------------------------------------------------------------

 ---
 ScH
 ---
 Symbolic Z-matrix:
 Charge =  0 Multiplicity = 1

                         Standard orientation:
 ---------------------------------------------------------------------
 Center     Atomic      Atomic             Coordinates (Angstroms)
 Number     Number       Type             X           Y           Z
 ---------------------------------------------------------------------
      1         21           0        0.000000    0.000000    0.095455
      2          1           0        0.000000    0.000000   -2.004545
 ---------------------------------------------------------------------

 SCF Done:  E(ROHF) =  -46.6482947457     A.U. after   10 cycles
 E2 =    -0.4185725624D+00 EUMP2 =    -0.47066867308125D+02
 CCSD(T)
 CCSD(T)= -0.47114125784D+02

 The electronic state is 1-SG.
 Alpha  occ. eigenvalues --   -2.71364  -1.68939  -1.68939  -1.68731  -0.36808
 Alpha  occ. eigenvalues --   -0.24280
 Alpha virt. eigenvalues --    0.00909   0.00909   0.01112   0.02062   0.02809
 Alpha virt. eigenvalues --    0.02809   0.02952   0.02952   0.03022   0.03641
 Alpha virt. eigenvalues --    0.03823   0.03823   0.06436   0.06436   0.07349

 Mulliken charges and spin densities:
               1          2
     1  Sc   0.264161   0.000000
     2  H   -0.264161   0.000000
 Sum of Mulliken charges =  -0.00000   0.00000

 Dipole moment (field-independent basis, Debye):
    X=              0.0000    Y=              0.0000    Z=              2.5873  Tot=              2.5873
 Quadrupole moment (field-independent basis, Debye-Ang):
   XX=            -22.8842   YY=            -22.8842   ZZ=            -29.1761
   XY=              0.0000   XZ=              0.0000   YZ=              0.0000

 P ROCCSD(T)=(maxcyc=150, Full)/Gen 5d 7f SCF=(maxcycles=300) Integral(
 668673\MP4SDQ=-47.0931387\CCSD=-47.0937396\CCSD(T)=-47.1141258\RMSD=4.
 Normal termination of Gaussian 16 at Tue Feb 13 09:58:24 2018.
