 Gaussian 16, Revision A.03,
 Gaussian 16:  ES64L-G16RevA.03 25-Dec-2016

 ----------------------------------------------------------------------
 #P ROCCSD(T)=(maxcyc=150, Full, SaveAmplitudes, ReadAmplitudes)/Gen 5d
  7f SCF=(maxcycles=300) Integral(NoXCTest) MaxDisk=500GB Pop=Regular P
 seudo=Read Guess=Read
 ----------------------------------------------------------------------

 ---
 MnH
 ---
 Symbolic Z-matrix:
 Charge =  0 Multiplicity = 7

                         Standard orientation:
 ---------------------------------------------------------------------
 Center     Atomic      Atomic             Coordinates (Angstroms)
 Number     Number       Type             X           Y           Z
 ---------------------------------------------------------------------
      1         25           0        0.000000    0.000000    0.061538
      2          1           0        0.000000    0.000000   -1.538462
 ---------------------------------------------------------------------

 SCF Done:  E(ROHF) =  -104.238743990     A.U. after   18 cycles
 E2 =    -0.6040285718D+00 EUMP2 =    -0.10484277256143D+03
 CCSD(T)
 CCSD(T)= -0.10486356027D+03

 The electronic state is 7-SG.
 Alpha  occ. eigenvalues --   -4.17339  -2.76247  -2.76247  -2.76142  -0.65020
 Alpha  occ. eigenvalues --   -0.64834  -0.64834  -0.64201  -0.64201  -0.41533
 Alpha  occ. eigenvalues --   -0.25663
 Alpha virt. eigenvalues --    0.01271   0.01271   0.02112   0.02964   0.05144
 Alpha virt. eigenvalues --    0.05144   0.05660   0.05815   0.05815   0.06197
 Alpha virt. eigenvalues --    0.06197   0.08875   0.13606   0.14247   0.18062

 Mulliken charges and spin densities:
               1          2
     1  Mn   0.363012   5.945597
     2  H   -0.363012   0.054403
 Sum of Mulliken charges =  -0.00000   6.00000

 Dipole moment (field-independent basis, Debye):
    X=              0.0000    Y=              0.0000    Z=              0.9736  Tot=              0.9736
 Quadrupole moment (field-independent basis, Debye-Ang):
   XX=            -16.0202   YY=            -16.0202   ZZ=            -25.8960
   XY=              0.0000   XZ=              0.0000   YZ=              0.0000

 \\#P ROCCSD(T)=(maxcyc=150, Full, SaveAmplitudes, ReadAmplitudes)/Gen
 .238744\PMP2-0=-104.8427726\CCSD=-104.8468512\CCSD(T)=-104.8635603\RMS
 Normal termination of Gaussian 16 at Mon Feb 26 09:10:44 2018.
