 Gaussian 16, Revision A.03,
 Gaussian 16:  ES64L-G16RevA.03 25-Dec-2016

 ----------------------------------------------------------------------
 #P ROCCSD(T)=(maxcyc=150, Window=(7,0), SaveAmplitudes, ReadAmplitudes
 )/Gen 5d 7f SCF=(maxcycles=300) Integral(NoXCTest, DKHSO) MaxDisk=500G
 B Pop=Regular Guess=Read IOp(5/15=2)
 ----------------------------------------------------------------------

 ---
 MnO
 ---
 Symbolic Z-matrix:
 Charge =  0 Multiplicity = 6

                         Standard orientation:
 ---------------------------------------------------------------------
 Center     Atomic      Atomic             Coordinates (Angstroms)
 Number     Number       Type             X           Y           Z
 ---------------------------------------------------------------------
      1         25           0        0.000000    0.000000    0.339394
      2          8           0        0.000000    0.000000   -1.060606
 ---------------------------------------------------------------------

 SCF Done:  E(ROHF) =  -1232.15001554     A.U. after   35 cycles
 E2 =    -0.9150071347D+00 EUMP2 =    -0.12330650226740D+04
 CCSD(T)
 CCSD(T)= -0.12330675663D+04

 The electronic state is 6-SG.
 Alpha  occ. eigenvalues -- -242.52672 -29.63022 -24.98500 -24.98500 -24.97682
 Alpha  occ. eigenvalues --  -20.51664  -4.08734  -2.73765  -2.73765  -2.72175
 Alpha  occ. eigenvalues --   -1.22865  -0.70499  -0.70499  -0.63174  -0.63174
 Alpha  occ. eigenvalues --   -0.55663  -0.41013  -0.41013  -0.31741
 Alpha virt. eigenvalues --    0.01241   0.02178   0.02178   0.03328   0.05222
 Alpha virt. eigenvalues --    0.07080   0.07080   0.08697   0.08697   0.09359
 Alpha virt. eigenvalues --    0.09359   0.09540   0.12554   0.15515   0.23640

 Mulliken charges and spin densities:
               1          2
     1  Mn   0.923277   4.803406
     2  O   -0.923277   0.196594
 Sum of Mulliken charges =  -0.00000   5.00000

 Dipole moment (field-independent basis, Debye):
    X=              0.0000    Y=              0.0000    Z=              4.1890  Tot=              4.1890
 Quadrupole moment (field-independent basis, Debye-Ang):
   XX=            -20.0070   YY=            -20.0070   ZZ=            -23.5950
   XY=              0.0000   XZ=              0.0000   YZ=              0.0000

 1\1\GINC-C493-051\SP\ROCCSD(T)-RW\Gen\Mn1O1(6)\AANNABE\14-Mar-2018\0\\
 #P ROCCSD(T)=(maxcyc=150, Window=(7,0), SaveAmplitudes, ReadAmplitudes
 )/Gen 5d 7f SCF=(maxcycles=300) Integral(NoXCTest, DKHSO) MaxDisk=500G
 B Pop=Regular Guess=Read IOp(5/15=2)\\MnO\\0,6\Mn,0,0.,0.,0.\O,0,0.,0.
 ,1.4\\Version=ES64L-G16RevA.03\State=6-SG\HF=-1232.1500155\MP2=-1233.0
 650227\MP3=-1232.9911679\PUHF=-1232.1500155\PMP2-0=-1233.0650227\MP4SD
 Q=-1233.0478384\CCSD=-1233.0273184\CCSD(T)=-1233.0675663\RMSD=1.886e-0
 9\PG=C*V [C*(O1Mn1)]\\@

 Normal termination of Gaussian 16 at Wed Mar 14 14:11:38 2018.
