 Gaussian 16, Revision A.03,
 Gaussian 16:  ES64L-G16RevA.03 25-Dec-2016

 ----------------------------------------------------------------------
 #P ROCCSD(T)=(maxcyc=150, Full)/Gen 5d 7f SCF=(maxcycles=300) Integral
 (NoXCTest, DKHSO) MaxDisk=500GB Pop=Regular IOp(5/15=2) Guess=Read
 ----------------------------------------------------------------------

 ---
 CrH
 ---
 Symbolic Z-matrix:
 Charge =  0 Multiplicity = 6

                         Standard orientation:
 ---------------------------------------------------------------------
 Center     Atomic      Atomic             Coordinates (Angstroms)
 Number     Number       Type             X           Y           Z
 ---------------------------------------------------------------------
      1         24           0        0.000000    0.000000    0.044000
      2          1           0        0.000000    0.000000   -1.056000
 ---------------------------------------------------------------------

 SCF Done:  E(ROHF) =  -1050.04190273     A.U. after   40 cycles
 E2 =    -0.9807246695D+00 EUMP2 =    -0.10510226273990D+04
 CCSD(T)
 CCSD(T)= -0.10510261654D+04

 The electronic state is 6-SG.
 Alpha  occ. eigenvalues -- -222.08836 -26.67177 -22.30644 -22.30644 -22.30562
 Alpha  occ. eigenvalues --   -3.56654  -2.32363  -2.31572  -2.31572  -0.48064
 Alpha  occ. eigenvalues --   -0.43607  -0.43607  -0.40748  -0.40748  -0.24933
 Alpha virt. eigenvalues --    0.01740   0.01853   0.01853   0.02422   0.06309
 Alpha virt. eigenvalues --    0.06443   0.06443   0.07922   0.07922   0.07985
 Alpha virt. eigenvalues --    0.08105   0.08105   0.09860   0.20263   0.22564

 Mulliken charges and spin densities:
               1          2
     1  Cr   0.557032   5.008971
     2  H   -0.557032  -0.008971
 Sum of Mulliken charges =  -0.00000   5.00000

 Dipole moment (field-independent basis, Debye):
    X=              0.0000    Y=              0.0000    Z=              2.0356  Tot=              2.0356
 Quadrupole moment (field-independent basis, Debye-Ang):
   XX=            -16.8523   YY=            -16.8523   ZZ=            -18.2987
   XY=              0.0000   XZ=              0.0000   YZ=              0.0000

 \\#P ROCCSD(T)=(maxcyc=150, Full)/Gen 5d 7f SCF=(maxcycles=300) Integr
 Normal termination of Gaussian 16 at Tue Feb 13 17:58:48 2018.
