 Gaussian 16, Revision A.03,
 Gaussian 16:  ES64L-G16RevA.03 25-Dec-2016

 ----------------------------------------------------------------------
 #P ROCCSD(T)=(MaxCyc=150, Full)/Gen SCF=(maxcycle=400) Integral(DKHSO,
  NoXCTest) Pop=Regular MaxDisk=500GB Guess=Read
 ----------------------------------------------------------------------

 ---
 FeO
 ---
 Symbolic Z-matrix:
 Charge =  0 Multiplicity = 5

                         Standard orientation:
 ---------------------------------------------------------------------
 Center     Atomic      Atomic             Coordinates (Angstroms)
 Number     Number       Type             X           Y           Z
 ---------------------------------------------------------------------
      1         26           0        0.000000    0.000000    0.423529
      2          8           0        0.000000    0.000000   -1.376471
 ---------------------------------------------------------------------

 SCF Done:  E(ROHF) =  -1346.18513131     A.U. after   21 cycles
 E2 =    -0.1429980232D+01 EUMP2 =    -0.13476151115376D+04
 CCSD(T)
 CCSD(T)= -0.13476256103D+04

 Unable to determine electronic state:  partially filled degenerate orbitals.
 Alpha  occ. eigenvalues -- -263.70684 -32.51210 -27.59761 -27.56852 -27.56852
 Alpha  occ. eigenvalues --  -20.45678  -4.43230  -3.02320  -2.95554  -2.95554
 Alpha  occ. eigenvalues --   -1.10057  -0.70815  -0.70815  -0.69142  -0.67716
 Alpha  occ. eigenvalues --   -0.62757  -0.34513  -0.34513  -0.34267
 Alpha virt. eigenvalues --   -0.05783   0.01547   0.01547   0.01665   0.04006
 Alpha virt. eigenvalues --    0.06758   0.06758   0.08761   0.09407   0.09438
 Alpha virt. eigenvalues --    0.10473   0.10473   0.13504   0.14764   0.24125

 Mulliken charges and spin densities:
               1          2
     1  Fe   1.104964   3.923379
     2  O   -1.104964   0.076621
 Sum of Mulliken charges =  -0.00000   4.00000

 Dipole moment (field-independent basis, Debye):
    X=              0.0000    Y=              0.0000    Z=              9.3585  Tot=              9.3585
 Quadrupole moment (field-independent basis, Debye-Ang):
   XX=            -19.1450   YY=            -19.1450   ZZ=            -24.1967
   XY=              0.0000   XZ=              0.0000   YZ=              0.0000

 \\#P ROCCSD(T)=(MaxCyc=150, Full)/Gen SCF=(maxcycle=400) Integral(DKHS
 SDQ=-1347.5911121\CCSD=-1347.5765158\CCSD(T)=-1347.6256103\RMSD=5.172e
 Normal termination of Gaussian 16 at Thu Mar  1 13:47:32 2018.
