 Gaussian 16, Revision A.03,
 Gaussian 16:  ES64L-G16RevA.03 25-Dec-2016

 ----------------------------------------------------------------------
 #P ROCCSD(T)=(MaxCyc=150, Full)/Gen SCF=(maxcycle=400) Integral(DKHSO,
  NoXCTest) Pop=Regular MaxDisk=500GB Guess=Read
 ----------------------------------------------------------------------

 ---
 FeO
 ---
 Symbolic Z-matrix:
 Charge =  0 Multiplicity = 5

                         Standard orientation:
 ---------------------------------------------------------------------
 Center     Atomic      Atomic             Coordinates (Angstroms)
 Number     Number       Type             X           Y           Z
 ---------------------------------------------------------------------
      1         26           0        0.000000    0.000000    0.423529
      2          8           0        0.000000    0.000000   -1.376471
 ---------------------------------------------------------------------

 SCF Done:  E(ROHF) =  -1346.19076965     A.U. after   23 cycles
 E2 =    -0.1495654463D+01 EUMP2 =    -0.13476864241173D+04
 CCSD(T)
 CCSD(T)= -0.13476946465D+04

 Unable to determine electronic state:  partially filled degenerate orbitals.
 Alpha  occ. eigenvalues -- -263.70667 -32.51179 -27.59725 -27.56821 -27.56821
 Alpha  occ. eigenvalues --  -20.45521  -4.43208  -3.02294  -2.95533  -2.95533
 Alpha  occ. eigenvalues --   -1.09991  -0.70811  -0.70811  -0.69133  -0.67713
 Alpha  occ. eigenvalues --   -0.62754  -0.34524  -0.34524  -0.34249
 Alpha virt. eigenvalues --   -0.05775   0.01288   0.01288   0.01419   0.03546
 Alpha virt. eigenvalues --    0.05919   0.05919   0.06360   0.06370   0.06677
 Alpha virt. eigenvalues --    0.07552   0.07552   0.11396   0.13405   0.19057

 Mulliken charges and spin densities:
               1          2
     1  Fe   1.093373   3.933024
     2  O   -1.093373   0.066976
 Sum of Mulliken charges =  -0.00000   4.00000

 Dipole moment (field-independent basis, Debye):
    X=             -0.0000    Y=             -0.0000    Z=              9.3478  Tot=              9.3478
 Quadrupole moment (field-independent basis, Debye-Ang):
   XX=            -19.1411   YY=            -19.1411   ZZ=            -24.1752
   XY=             -0.0000   XZ=             -0.0000   YZ=             -0.0000

 \\#P ROCCSD(T)=(MaxCyc=150, Full)/Gen SCF=(maxcycle=400) Integral(DKHS
 SDQ=-1347.6567601\CCSD=-1347.6430872\CCSD(T)=-1347.6946465\RMSD=2.017e
 Normal termination of Gaussian 16 at Fri Mar  2 21:32:57 2018.
