 Gaussian 16, Revision A.03,
 Gaussian 16:  ES64L-G16RevA.03 25-Dec-2016

 ----------------------------------------------------------------------
 #P ROCCSD(T)=(maxcyc=150, Full)/Gen 5d 7f SCF=(maxcycles=300) Integral
 (NoXCTest) MaxDisk=500GB Pop=Regular Pseudo=Read IOp(5/15=2) Guess=Rea
 d
 ----------------------------------------------------------------------

 ---
 ScH
 ---
 Symbolic Z-matrix:
 Charge =  0 Multiplicity = 1

                         Standard orientation:
 ---------------------------------------------------------------------
 Center     Atomic      Atomic             Coordinates (Angstroms)
 Number     Number       Type             X           Y           Z
 ---------------------------------------------------------------------
      1         21           0        0.000000    0.000000    0.050000
      2          1           0        0.000000    0.000000   -1.050000
 ---------------------------------------------------------------------

 SCF Done:  E(ROHF) =  -46.6048228098     A.U. after   10 cycles
 E2 =    -0.4463702117D+00 EUMP2 =    -0.47051193021475D+02
 CCSD(T)
 CCSD(T)= -0.47086306328D+02

 The electronic state is 1-SG.
 Alpha  occ. eigenvalues --   -2.66839  -1.63811  -1.56851  -1.56851  -0.47243
 Alpha  occ. eigenvalues --   -0.21338
 Alpha virt. eigenvalues --    0.01274   0.01320   0.01320   0.01676   0.02604
 Alpha virt. eigenvalues --    0.02604   0.02620   0.02644   0.02644   0.04011
 Alpha virt. eigenvalues --    0.04411   0.04411   0.07060   0.07426   0.07426

 Mulliken charges and spin densities:
               1          2
     1  Sc   0.240236   0.000000
     2  H   -0.240236   0.000000
 Sum of Mulliken charges =  -0.00000   0.00000

 Dipole moment (field-independent basis, Debye):
    X=              0.0000    Y=              0.0000    Z=              0.9495  Tot=              0.9495
 Quadrupole moment (field-independent basis, Debye-Ang):
   XX=            -23.6303   YY=            -23.6303   ZZ=            -22.1760
   XY=              0.0000   XZ=              0.0000   YZ=              0.0000

 P ROCCSD(T)=(maxcyc=150, Full)/Gen 5d 7f SCF=(maxcycles=300) Integral(
 MP2-0=-47.051193\MP4SDQ=-47.067821\CCSD=-47.0675576\CCSD(T)=-47.086306
 Normal termination of Gaussian 16 at Tue Feb 13 18:39:10 2018.
