 Gaussian 16, Revision A.03,
 Gaussian 16:  ES64L-G16RevA.03 25-Dec-2016

 ----------------------------------------------------------------------
 #P ROCCSD(T)=(maxcyc=150, Full)/Gen 5d 7f SCF=(maxcycles=300, NoVarAcc
 , VShift=300) MaxDisk=100GB Pop=Regular Pseudo=Read Guess=Read
 ----------------------------------------------------------------------

 --
 Ti
 --
 Symbolic Z-matrix:
 Charge =  0 Multiplicity = 3

                         Standard orientation:
 ---------------------------------------------------------------------
 Center     Atomic      Atomic             Coordinates (Angstroms)
 Number     Number       Type             X           Y           Z
 ---------------------------------------------------------------------
      1         22           0        0.000000    0.000000    0.000000
 ---------------------------------------------------------------------

 SCF Done:  E(ROHF) =  -57.7389583335     A.U. after   20 cycles
 E2 =    -0.4459959596D+00 EUMP2 =    -0.58184954293063D+02
 CCSD(T)
 CCSD(T)= -0.58219677644D+02

 Unable to determine electronic state:  an orbital has unidentified symmetry.
 Alpha  occ. eigenvalues --   -3.02740  -1.88032  -1.88032  -1.88032  -0.43476
 Alpha  occ. eigenvalues --   -0.43476  -0.23022
 Alpha virt. eigenvalues --    0.01345   0.01345   0.01345   0.02031   0.03480
 Alpha virt. eigenvalues --    0.03480   0.03480   0.03510   0.03510   0.04639
 Alpha virt. eigenvalues --    0.04639   0.04639   0.09495   0.09495   0.09495

 Mulliken charges and spin densities:
               1          2
     1  Ti  -0.000000   2.000000
 Sum of Mulliken charges =  -0.00000   2.00000

 Dipole moment (field-independent basis, Debye):
    X=             -0.0000    Y=             -0.0000    Z=              0.0000  Tot=              0.0000
 Quadrupole moment (field-independent basis, Debye-Ang):
   XX=            -21.9042   YY=            -21.9042   ZZ=            -21.9042
   XY=             -0.0000   XZ=             -0.0000   YZ=              0.0000

 1\1\GINC-C430-082\SP\ROCCSD(T)-Full\Gen\Ti1(3)\AANNABE\13-Mar-2018\0\\
 #P ROCCSD(T)=(maxcyc=150, Full)/Gen 5d 7f SCF=(maxcycles=300, NoVarAcc
 , VShift=300) MaxDisk=100GB Pop=Regular Pseudo=Read Guess=Read\\Ti\\0,
 3\Ti,0,0.,0.,0.\\Version=ES64L-G16RevA.03\HF=-57.7389583\MP2=-58.18495
 43\MP3=-58.2028252\PUHF=-57.7389583\PMP2-0=-58.1849543\MP4SDQ=-58.2023
 845\CCSD=-58.2027747\CCSD(T)=-58.2196776\RMSD=6.240e-09\PG=OH [O(Ti1)]
 \\@

 Normal termination of Gaussian 16 at Tue Mar 13 13:33:59 2018.
