 Gaussian 16, Revision A.03,
 Gaussian 16:  ES64L-G16RevA.03 25-Dec-2016

 ----------------------------------------------------------------------
 #P ROCCSD(T)=(maxcyc=150, Full)/Gen 5d 7f SCF=(maxcycles=300) Integral
 (NoXCTest) MaxDisk=500GB Pop=Regular Pseudo=Read
 ----------------------------------------------------------------------

 ---
 MnH
 ---
 Symbolic Z-matrix:
 Charge =  0 Multiplicity = 7

                         Standard orientation:
 ---------------------------------------------------------------------
 Center     Atomic      Atomic             Coordinates (Angstroms)
 Number     Number       Type             X           Y           Z
 ---------------------------------------------------------------------
      1         25           0        0.000000    0.000000    0.061538
      2          1           0        0.000000    0.000000   -1.538462
 ---------------------------------------------------------------------

 SCF Done:  E(ROHF) =  -104.054902405     A.U. after   24 cycles
 E2 =    -0.5712860107D+00 EUMP2 =    -0.10462618841566D+03
 CCSD(T)
 CCSD(T)= -0.10464853291D+03

 The electronic state is 7-SG.
 Alpha  occ. eigenvalues --   -4.15936  -2.80617  -2.80617  -2.80484  -0.64319
 Alpha  occ. eigenvalues --   -0.64095  -0.64095  -0.63433  -0.63433  -0.41411
 Alpha  occ. eigenvalues --   -0.25781
 Alpha virt. eigenvalues --    0.01292   0.01292   0.02297   0.03159   0.05762
 Alpha virt. eigenvalues --    0.05762   0.08390   0.08494   0.08494   0.08959
 Alpha virt. eigenvalues --    0.08959   0.09584   0.14036   0.20220   0.22694

 Mulliken charges and spin densities:
               1          2
     1  Mn   0.434933   5.958560
     2  H   -0.434933   0.041440
 Sum of Mulliken charges =  -0.00000   6.00000

 Dipole moment (field-independent basis, Debye):
    X=              0.0000    Y=              0.0000    Z=              0.9491  Tot=              0.9491
 Quadrupole moment (field-independent basis, Debye-Ang):
   XX=            -16.1001   YY=            -16.1001   ZZ=            -25.9562
   XY=              0.0000   XZ=              0.0000   YZ=              0.0000

 \\#P ROCCSD(T)=(maxcyc=150, Full)/Gen 5d 7f SCF=(maxcycles=300) Integr
 884\MP4SDQ=-104.6321866\CCSD=-104.6330012\CCSD(T)=-104.6485329\RMSD=6.
 Normal termination of Gaussian 16 at Tue Feb 13 04:49:37 2018.
