 Gaussian 16, Revision A.03,
 Gaussian 16:  ES64L-G16RevA.03 25-Dec-2016

 ----------------------------------------------------------------------
 #P ROCCSD(T)=(maxcyc=150, Window=(7,0), SaveAmplitudes, ReadAmplitudes
 )/Gen 5d 7f SCF=(maxcycles=300) Integral(NoXCTest, DKHSO) MaxDisk=500G
 B Pop=Regular Guess=Read
 ----------------------------------------------------------------------

 ---
 CrO
 ---
 Symbolic Z-matrix:
 Charge =  0 Multiplicity = 5

                         Standard orientation:
 ---------------------------------------------------------------------
 Center     Atomic      Atomic             Coordinates (Angstroms)
 Number     Number       Type             X           Y           Z
 ---------------------------------------------------------------------
      1         24           0        0.000000    0.000000    0.350000
      2          8           0        0.000000    0.000000   -1.050000
 ---------------------------------------------------------------------

 SCF Done:  E(ROHF) =  -1124.46736357     A.U. after   22 cycles
 E2 =    -0.9004758656D+00 EUMP2 =    -0.11253678394324D+04
 CCSD(T)
 CCSD(T)= -0.11253760587D+04

 Unable to determine electronic state:  an orbital has unidentified symmetry.
 Alpha  occ. eigenvalues -- -222.24914 -26.84492 -22.47870 -22.47775 -22.47336
 Alpha  occ. eigenvalues --  -20.53857  -3.68741  -2.44882  -2.41264  -2.41245
 Alpha  occ. eigenvalues --   -1.22180  -0.65199  -0.56797  -0.53591  -0.53378
 Alpha  occ. eigenvalues --   -0.51922  -0.38394  -0.28552
 Alpha virt. eigenvalues --    0.01034   0.01614   0.02030   0.02731   0.04507
 Alpha virt. eigenvalues --    0.04922   0.05375   0.05377   0.05517   0.05727
 Alpha virt. eigenvalues --    0.06928   0.07003   0.10488   0.13658   0.14180

 Mulliken charges and spin densities:
               1          2
     1  Cr   0.930066   3.869446
     2  O   -0.930066   0.130554
 Sum of Mulliken charges =  -0.00000   4.00000

 Dipole moment (field-independent basis, Debye):
    X=              0.0000    Y=              0.0000    Z=              3.0835  Tot=              3.0835
 Quadrupole moment (field-independent basis, Debye-Ang):
   XX=            -21.3832   YY=            -20.1012   ZZ=            -24.5929
   XY=             -0.0000   XZ=             -0.0000   YZ=              0.0000

 1\1\GINC-C484-054\SP\ROCCSD(T)-RW\Gen\Cr1O1(5)\AANNABE\14-Mar-2018\0\\
 #P ROCCSD(T)=(maxcyc=150, Window=(7,0), SaveAmplitudes, ReadAmplitudes
 )/Gen 5d 7f SCF=(maxcycles=300) Integral(NoXCTest, DKHSO) MaxDisk=500G
 B Pop=Regular Guess=Read\\CrO\\0,5\Cr,0,0.,0.,0.\O,0,0.,0.,1.4\\Versio
 n=ES64L-G16RevA.03\HF=-1124.4673636\MP2=-1125.3678394\PUHF=-1124.46736
 36\PMP2-0=-1125.3678394\CCSD=-1125.3308764\CCSD(T)=-1125.3760587\RMSD=
 7.072e-09\PG=C*V [C*(O1Cr1)]\\@

 Normal termination of Gaussian 16 at Wed Mar 14 15:22:59 2018.
