 Gaussian 16, Revision A.03,
 Gaussian 16:  ES64L-G16RevA.03 25-Dec-2016

 ----------------------------------------------------------------------
 #P ROCCSD(T)=(maxcyc=150, Full, SaveAmplitudes, ReadAmplitudes)/Gen 5d
  7f SCF=(maxcycles=300) Integral(NoXCTest) MaxDisk=500GB Pop=Regular P
 seudo=Read Guess=Read IOp(5/15=2)
 ----------------------------------------------------------------------

 ---
 ScO
 ---
 Symbolic Z-matrix:
 Charge =  0 Multiplicity = 2

                         Standard orientation:
 ---------------------------------------------------------------------
 Center     Atomic      Atomic             Coordinates (Angstroms)
 Number     Number       Type             X           Y           Z
 ---------------------------------------------------------------------
      1         21           0        0.000000    0.000000    0.386207
      2          8           0        0.000000    0.000000   -1.013793
 ---------------------------------------------------------------------

 SCF Done:  E(ROHF) =  -61.7969832706     A.U. after   18 cycles
 E2 =    -0.6701771077D+00 EUMP2 =    -0.62467160378288D+02
 CCSD(T)
 CCSD(T)= -0.62494051002D+02

 The electronic state is 2-SG.
 Alpha  occ. eigenvalues --   -2.59037  -1.72150  -1.55393  -1.55393  -1.09423
 Alpha  occ. eigenvalues --   -0.52616  -0.52616  -0.46206  -0.20955
 Alpha virt. eigenvalues --    0.00846   0.00846   0.02202   0.02232   0.03749
 Alpha virt. eigenvalues --    0.03749   0.03837   0.03837   0.03990   0.04567
 Alpha virt. eigenvalues --    0.04567   0.07118   0.10383   0.10383   0.10965

 Mulliken charges and spin densities:
               1          2
     1  Sc   1.281722   0.990613
     2  O   -1.281722   0.009387
 Sum of Mulliken charges =  -0.00000   1.00000

 Dipole moment (field-independent basis, Debye):
    X=              0.0000    Y=              0.0000    Z=              1.4913  Tot=              1.4913
 Quadrupole moment (field-independent basis, Debye-Ang):
   XX=            -22.3734   YY=            -22.3734   ZZ=            -30.3227
   XY=              0.0000   XZ=              0.0000   YZ=              0.0000

 \\#P ROCCSD(T)=(maxcyc=150, Full, SaveAmplitudes, ReadAmplitudes)/Gen
 31\CCSD=-62.461768\CCSD(T)=-62.494051\RMSD=7.633e-09\PG=C*V [C*(O1Sc1)
 Normal termination of Gaussian 16 at Tue Feb 20 23:52:32 2018.
