 Gaussian 16, Revision A.03,
 Gaussian 16:  ES64L-G16RevA.03 25-Dec-2016

 ----------------------------------------------------------------------
 #P ROCCSD(T)=(maxcyc=150, Full)/Gen 5d 7f SCF=(maxcycles=300) Integral
 (NoXCTest) MaxDisk=500GB Pop=Regular Pseudo=Read
 ----------------------------------------------------------------------

 ---
 CrH
 ---
 Symbolic Z-matrix:
 Charge =  0 Multiplicity = 6

                         Standard orientation:
 ---------------------------------------------------------------------
 Center     Atomic      Atomic             Coordinates (Angstroms)
 Number     Number       Type             X           Y           Z
 ---------------------------------------------------------------------
      1         24           0        0.000000    0.000000    0.064000
      2          1           0        0.000000    0.000000   -1.536000
 ---------------------------------------------------------------------

 SCF Done:  E(ROHF) =  -86.6911936769     A.U. after   38 cycles
 E2 =    -0.5383603878D+00 EUMP2 =    -0.87229554064643D+02
 CCSD(T)
 CCSD(T)= -0.87273906709D+02

 The electronic state is 6-SG.
 Alpha  occ. eigenvalues --   -3.70817  -2.46309  -2.46309  -2.41990  -0.53101
 Alpha  occ. eigenvalues --   -0.53101  -0.50027  -0.50027  -0.41632  -0.25827
 Alpha virt. eigenvalues --    0.01394   0.01394   0.02257   0.02461   0.05661
 Alpha virt. eigenvalues --    0.05661   0.05847   0.07667   0.07667   0.08072
 Alpha virt. eigenvalues --    0.08072   0.08667   0.10284   0.18176   0.21235

 Mulliken charges and spin densities:
               1          2
     1  Cr   0.516811   4.988236
     2  H   -0.516811   0.011764
 Sum of Mulliken charges =   0.00000   5.00000

 Dipole moment (field-independent basis, Debye):
    X=              0.0000    Y=              0.0000    Z=              2.0521  Tot=              2.0521
 Quadrupole moment (field-independent basis, Debye-Ang):
   XX=            -16.9791   YY=            -16.9791   ZZ=            -23.1113
   XY=              0.0000   XZ=              0.0000   YZ=              0.0000

 \\#P ROCCSD(T)=(maxcyc=150, Full)/Gen 5d 7f SCF=(maxcycles=300) Integr
 4SDQ=-87.2429705\CCSD=-87.256583\CCSD(T)=-87.2739067\RMSD=6.758e-09\PG
 Normal termination of Gaussian 16 at Tue Feb 13 04:39:21 2018.
