 Gaussian 16, Revision A.03,
 Gaussian 16:  ES64L-G16RevA.03 25-Dec-2016

 ----------------------------------------------------------------------
 #P ROCCSD(T)=(maxcyc=150, Full, SaveAmplitudes, ReadAmplitudes)/Gen 5d
  7f SCF=(maxcycles=300, VShift=400) Integral(NoXCTest) MaxDisk=500GB P
 op=Full Pseudo=Read Guess=Read
 ----------------------------------------------------------------------

 ---
 MnH
 ---
 Symbolic Z-matrix:
 Charge =  0 Multiplicity = 7

                         Standard orientation:
 ---------------------------------------------------------------------
 Center     Atomic      Atomic             Coordinates (Angstroms)
 Number     Number       Type             X           Y           Z
 ---------------------------------------------------------------------
      1         25           0        0.000000    0.000000    0.050000
      2          1           0        0.000000    0.000000   -1.250000
 ---------------------------------------------------------------------

 SCF Done:  E(ROHF) =  -104.185000077     A.U. after   29 cycles
 E2 =    -0.6215302458D+00 EUMP2 =    -0.10480653032256D+03
 CCSD(T)
 CCSD(T)= -0.10482610889D+03

 The electronic state is 7-SG.
 Alpha  occ. eigenvalues --   -4.13414  -2.76484  -2.75918  -2.75918  -0.67266
 Alpha  occ. eigenvalues --   -0.64386  -0.64386  -0.64201  -0.64201  -0.41795
 Alpha  occ. eigenvalues --   -0.24231
 Alpha virt. eigenvalues --    0.01326   0.01326   0.01958   0.03130   0.05177
 Alpha virt. eigenvalues --    0.05177   0.05709   0.05828   0.05828   0.06173
 Alpha virt. eigenvalues --    0.06173   0.08359   0.13991   0.15060   0.17884

 Mulliken charges and spin densities:
               1          2
     1  Mn   0.458542   5.912886
     2  H   -0.458542   0.087114
 Sum of Mulliken charges =  -0.00000   6.00000

 Dipole moment (field-independent basis, Debye):
    X=              0.0000    Y=              0.0000    Z=             -0.0238  Tot=              0.0238
 Quadrupole moment (field-independent basis, Debye-Ang):
   XX=            -15.8914   YY=            -15.8914   ZZ=            -25.3071
   XY=              0.0000   XZ=              0.0000   YZ=              0.0000

 \\#P ROCCSD(T)=(maxcyc=150, Full, SaveAmplitudes, ReadAmplitudes)/Gen
 \PUHF=-104.1850001\PMP2-0=-104.8065303\CCSD=-104.80833\CCSD(T)=-104.82
 Normal termination of Gaussian 16 at Wed Apr  4 02:37:36 2018.
