 Gaussian 16, Revision A.03,
 Gaussian 16:  ES64L-G16RevA.03 25-Dec-2016

 ----------------------------------------------------------------------
 #P ROCCSD(T)=(maxcyc=150, Full, SaveAmplitudes, ReadAmplitudes)/Gen 5d
  7f SCF=(maxcycles=300) Integral(NoXCTest) MaxDisk=500GB Pop=Regular P
 seudo=Read Guess=Read IOp(5/15=2)
 ----------------------------------------------------------------------

 ---
 ScO
 ---
 Symbolic Z-matrix:
 Charge =  0 Multiplicity = 2

                         Standard orientation:
 ---------------------------------------------------------------------
 Center     Atomic      Atomic             Coordinates (Angstroms)
 Number     Number       Type             X           Y           Z
 ---------------------------------------------------------------------
      1         21           0        0.000000    0.000000    0.496552
      2          8           0        0.000000    0.000000   -1.303448
 ---------------------------------------------------------------------

 SCF Done:  E(ROHF) =  -61.8159502406     A.U. after   19 cycles
 E2 =    -0.6848201560D+00 EUMP2 =    -0.62500770396546D+02
 CCSD(T)
 CCSD(T)= -0.62531485402D+02

 The electronic state is 2-SG.
 Alpha  occ. eigenvalues --   -2.69089  -1.67580  -1.66438  -1.66438  -1.11154
 Alpha  occ. eigenvalues --   -0.41572  -0.38673  -0.38673  -0.26351
 Alpha virt. eigenvalues --   -0.00432  -0.00432   0.01188   0.02127   0.03292
 Alpha virt. eigenvalues --    0.03292   0.03485   0.03485   0.04252   0.04252
 Alpha virt. eigenvalues --    0.04397   0.04995   0.07062   0.07062   0.10257

 Mulliken charges and spin densities:
               1          2
     1  Sc   1.227573   0.975444
     2  O   -1.227573   0.024556
 Sum of Mulliken charges =  -0.00000   1.00000

 Dipole moment (field-independent basis, Debye):
    X=              0.0000    Y=              0.0000    Z=              5.7655  Tot=              5.7655
 Quadrupole moment (field-independent basis, Debye-Ang):
   XX=            -21.9802   YY=            -21.9802   ZZ=            -33.4260
   XY=              0.0000   XZ=              0.0000   YZ=              0.0000

 \\#P ROCCSD(T)=(maxcyc=150, Full, SaveAmplitudes, ReadAmplitudes)/Gen
 82\CCSD=-62.4881737\CCSD(T)=-62.5314854\RMSD=2.680e-09\PG=C*V [C*(O1Sc
 Normal termination of Gaussian 16 at Wed Feb 21 05:21:44 2018.
