 Gaussian 16, Revision A.03,
 Gaussian 16:  ES64L-G16RevA.03 25-Dec-2016

 ----------------------------------------------------------------------
 #P ROCCSD(T)=(maxcyc=150, Full, SaveAmplitudes, ReadAmplitudes)/Gen 5d
  7f SCF=(maxcycles=300) Integral(NoXCTest) MaxDisk=500GB Pop=Regular P
 seudo=Read Guess=Read IOp(5/15=2)
 ----------------------------------------------------------------------

 ---
 CrO
 ---
 Symbolic Z-matrix:
 Charge =  0 Multiplicity = 5

                         Standard orientation:
 ---------------------------------------------------------------------
 Center     Atomic      Atomic             Coordinates (Angstroms)
 Number     Number       Type             X           Y           Z
 ---------------------------------------------------------------------
      1         24           0        0.000000    0.000000    0.400000
      2          8           0        0.000000    0.000000   -1.200000
 ---------------------------------------------------------------------

 SCF Done:  E(ROHF) =  -102.006304234     A.U. after   26 cycles
 E2 =    -0.8822598113D+00 EUMP2 =    -0.10288856404566D+03
 CCSD(T)
 CCSD(T)= -0.10291581727D+03

 Unable to determine electronic state:  an orbital has unidentified symmetry.
 Alpha  occ. eigenvalues --   -3.78903  -2.49875  -2.45880  -2.42747  -1.17534
 Alpha  occ. eigenvalues --   -0.61798  -0.58452  -0.57202  -0.47908  -0.42833
 Alpha  occ. eigenvalues --   -0.38444  -0.32063
 Alpha virt. eigenvalues --   -0.00293   0.00658   0.01695   0.03201   0.03867
 Alpha virt. eigenvalues --    0.04579   0.06122   0.07574   0.07589   0.08047
 Alpha virt. eigenvalues --    0.08082   0.08489   0.13181   0.13710   0.15860

 Mulliken charges and spin densities:
               1          2
     1  Cr   1.086330   3.859570
     2  O   -1.086330   0.140430
 Sum of Mulliken charges =  -0.00000   4.00000

 Dipole moment (field-independent basis, Debye):
    X=              0.0000    Y=              0.0000    Z=              6.2804  Tot=              6.2804
 Quadrupole moment (field-independent basis, Debye-Ang):
   XX=            -20.5223   YY=            -19.4380   ZZ=            -23.7822
   XY=              0.0000   XZ=              0.0000   YZ=              0.0000

 \\#P ROCCSD(T)=(maxcyc=150, Full, SaveAmplitudes, ReadAmplitudes)/Gen
 -102.8654499\CCSD(T)=-102.9158173\RMSD=6.449e-09\PG=C*V [C*(O1Cr1)]\\@
 Normal termination of Gaussian 16 at Mon Mar 12 14:32:03 2018.
