 Gaussian 16, Revision A.03,
 Gaussian 16:  ES64L-G16RevA.03 25-Dec-2016

 ----------------------------------------------------------------------
 #P ROCCSD(T)=(maxcyc=150, Full)/Gen 5d 7f SCF=(maxcycles=300, NoVarAcc
 , VShift=200) MaxDisk=100GB Pop=Regular Pseudo=Read Guess=Read
 ----------------------------------------------------------------------

 --
 Sc
 --
 Symbolic Z-matrix:
 Charge =  0 Multiplicity = 2

                         Standard orientation:
 ---------------------------------------------------------------------
 Center     Atomic      Atomic             Coordinates (Angstroms)
 Number     Number       Type             X           Y           Z
 ---------------------------------------------------------------------
      1         21           0        0.000000    0.000000    0.000000
 ---------------------------------------------------------------------

 SCF Done:  E(ROHF) =  -46.1565495086     A.U. after   22 cycles
 E2 =    -0.3945821508D+00 EUMP2 =    -0.46551131659387D+02
 CCSD(T)
 CCSD(T)= -0.46584739451D+02

 Unable to determine electronic state:  an orbital has unidentified symmetry.
 Alpha  occ. eigenvalues --   -2.63374  -1.62429  -1.62429  -1.58549  -0.34882
 Alpha  occ. eigenvalues --   -0.21553
 Alpha virt. eigenvalues --    0.01185   0.01275   0.01275   0.02000   0.02626
 Alpha virt. eigenvalues --    0.02629   0.02629   0.02635   0.02650   0.04271
 Alpha virt. eigenvalues --    0.04393   0.04393   0.07418   0.07495   0.07495

 Mulliken charges and spin densities:
               1          2
     1  Sc  -0.000000   1.000000
 Sum of Mulliken charges =  -0.00000   1.00000

 Dipole moment (field-independent basis, Debye):
    X=              0.0000    Y=              0.0000    Z=              0.0000  Tot=              0.0000
 Quadrupole moment (field-independent basis, Debye-Ang):
   XX=            -23.2855   YY=            -23.2855   ZZ=            -22.9950
   XY=              0.0000   XZ=              0.0000   YZ=             -0.0000

 1\1\GINC-C455-003\SP\ROCCSD(T)-Full\Gen\Sc1(2)\AANNABE\07-Mar-2018\0\\
 #P ROCCSD(T)=(maxcyc=150, Full)/Gen 5d 7f SCF=(maxcycles=300, NoVarAcc
 , VShift=200) MaxDisk=100GB Pop=Regular Pseudo=Read Guess=Read\\Sc\\0,
 2\Sc,0,0.,0.,0.\\Version=ES64L-G16RevA.03\HF=-46.1565495\MP2=-46.55113
 17\MP3=-46.5691498\PUHF=-46.1565495\PMP2-0=-46.5511317\MP4SDQ=-46.5684
 757\CCSD=-46.5687294\CCSD(T)=-46.5847395\RMSD=5.210e-09\PG=OH [O(Sc1)]
 \\@

 Normal termination of Gaussian 16 at Wed Mar  7 13:26:05 2018.
