 Gaussian 16, Revision A.03,
 Gaussian 16:  ES64L-G16RevA.03 25-Dec-2016

 ----------------------------------------------------------------------
 #P ROCCSD(T)=(MaxCyc=150, Full)/Gen SCF=(maxcycle=400, vshift=200) Pse
 udo=Read Integral(NoXCTest) Pop=Regular MaxDisk=500GB Guess=Read IOp(5
 /15=2)
 ----------------------------------------------------------------------

 ---
 FeH
 ---
 Symbolic Z-matrix:
 Charge =  0 Multiplicity = 4

                         Standard orientation:
 ---------------------------------------------------------------------
 Center     Atomic      Atomic             Coordinates (Angstroms)
 Number     Number       Type             X           Y           Z
 ---------------------------------------------------------------------
      1         26           0        0.000000    0.000000    0.062963
      2          1           0        0.000000    0.000000   -1.637037
 ---------------------------------------------------------------------

 SCF Done:  E(ROHF) =  -123.291973990     A.U. after   29 cycles
 E2 =    -0.8007851328D+00 EUMP2 =    -0.12409275912304D+03
 CCSD(T)
 CCSD(T)= -0.12409551079D+03

 Unable to determine electronic state:  an orbital has unidentified symmetry.
 Alpha  occ. eigenvalues --   -4.16226  -2.78301  -2.77877  -2.77877  -0.49203
 Alpha  occ. eigenvalues --   -0.49203  -0.48759  -0.43797  -0.43548  -0.31901
 Alpha virt. eigenvalues --   -0.00676   0.02161   0.02161   0.03020   0.03736
 Alpha virt. eigenvalues --    0.06222   0.06745   0.06759   0.06869   0.06869
 Alpha virt. eigenvalues --    0.07719   0.07719   0.10038   0.16053   0.17843

 Mulliken charges and spin densities:
               1          2
     1  Fe   0.330438   2.997432
     2  H   -0.330438   0.002568
 Sum of Mulliken charges =  -0.00000   3.00000

 Dipole moment (field-independent basis, Debye):
    X=              0.0000    Y=              0.0000    Z=              4.7353  Tot=              4.7353
 Quadrupole moment (field-independent basis, Debye-Ang):
   XX=            -15.4198   YY=            -15.4198   ZZ=            -18.2637
   XY=              0.0000   XZ=              0.0000   YZ=              0.0000

 \\#P ROCCSD(T)=(MaxCyc=150, Full)/Gen SCF=(maxcycle=400, vshift=200) P
 MP2-0=-124.0927591\MP4SDQ=-124.0733911\CCSD=-124.0668756\CCSD(T)=-124.
 Normal termination of Gaussian 16 at Sat Mar 24 01:25:22 2018.
