 Gaussian 16, Revision A.03,
 Gaussian 16:  ES64L-G16RevA.03 25-Dec-2016

 ----------------------------------------------------------------------
 #P ROCCSD(T)=(MaxCyc=150, Full)/Gen SCF=(maxcycle=400, vshift=200) Pse
 udo=Read Integral(NoXCTest) Pop=Regular MaxDisk=500GB Guess=Read IOp(5
 /15=2)
 ----------------------------------------------------------------------

 ---
 FeH
 ---
 Symbolic Z-matrix:
 Charge =  0 Multiplicity = 4

                         Standard orientation:
 ---------------------------------------------------------------------
 Center     Atomic      Atomic             Coordinates (Angstroms)
 Number     Number       Type             X           Y           Z
 ---------------------------------------------------------------------
      1         26           0        0.000000    0.000000    0.062963
      2          1           0        0.000000    0.000000   -1.637037
 ---------------------------------------------------------------------

 SCF Done:  E(ROHF) =  -123.292142519     A.U. after   16 cycles
 E2 =    -0.8150226226D+00 EUMP2 =    -0.12410716514199D+03
 CCSD(T)
 CCSD(T)= -0.12410783818D+03

 Unable to determine electronic state:  an orbital has unidentified symmetry.
 Alpha  occ. eigenvalues --   -4.16222  -2.78297  -2.77873  -2.77873  -0.49200
 Alpha  occ. eigenvalues --   -0.49200  -0.48755  -0.43799  -0.43551  -0.31902
 Alpha virt. eigenvalues --   -0.00698   0.02095   0.02095   0.02683   0.03229
 Alpha virt. eigenvalues --    0.05758   0.06178   0.06189   0.06359   0.06359
 Alpha virt. eigenvalues --    0.07358   0.07358   0.08767   0.12848   0.16278

 Mulliken charges and spin densities:
               1          2
     1  Fe   0.288836   2.996306
     2  H   -0.288836   0.003694
 Sum of Mulliken charges =  -0.00000   3.00000

 Dipole moment (field-independent basis, Debye):
    X=              0.0000    Y=              0.0000    Z=              4.7349  Tot=              4.7349
 Quadrupole moment (field-independent basis, Debye-Ang):
   XX=            -15.4176   YY=            -15.4176   ZZ=            -18.2669
   XY=              0.0000   XZ=              0.0000   YZ=              0.0000

 \\#P ROCCSD(T)=(MaxCyc=150, Full)/Gen SCF=(maxcycle=400, vshift=200) P
 \PMP2-0=-124.1071651\MP4SDQ=-124.0851597\CCSD=-124.0784931\CCSD(T)=-12
 Normal termination of Gaussian 16 at Sat Mar 24 03:26:23 2018.
