 Gaussian 16, Revision A.03,
 Gaussian 16:  ES64L-G16RevA.03 25-Dec-2016

 ----------------------------------------------------------------------
 #P ROCCSD(T)=(MaxCyc=150, Full)/Gen SCF=(maxcycle=400, vshift=200) Pse
 udo=Read Integral(NoXCTest) Pop=Regular MaxDisk=500GB Guess=Read IOp(5
 /15=2)
 ----------------------------------------------------------------------

 ---
 FeH
 ---
 Symbolic Z-matrix:
 Charge =  0 Multiplicity = 4

                         Standard orientation:
 ---------------------------------------------------------------------
 Center     Atomic      Atomic             Coordinates (Angstroms)
 Number     Number       Type             X           Y           Z
 ---------------------------------------------------------------------
      1         26           0        0.000000    0.000000    0.062963
      2          1           0        0.000000    0.000000   -1.637037
 ---------------------------------------------------------------------

 SCF Done:  E(ROHF) =  -123.290555117     A.U. after   34 cycles
 E2 =    -0.7649925825D+00 EUMP2 =    -0.12405554769907D+03
 CCSD(T)
 CCSD(T)= -0.12406045399D+03

 Unable to determine electronic state:  an orbital has unidentified symmetry.
 Alpha  occ. eigenvalues --   -4.16245  -2.78319  -2.77892  -2.77892  -0.49200
 Alpha  occ. eigenvalues --   -0.49200  -0.48754  -0.43791  -0.43540  -0.31900
 Alpha virt. eigenvalues --   -0.00663   0.02400   0.02400   0.03302   0.04013
 Alpha virt. eigenvalues --    0.08418   0.08418   0.09531   0.10161   0.10202
 Alpha virt. eigenvalues --    0.10395   0.10395   0.10897   0.17131   0.23261

 Mulliken charges and spin densities:
               1          2
     1  Fe   0.430179   2.998477
     2  H   -0.430179   0.001523
 Sum of Mulliken charges =  -0.00000   3.00000

 Dipole moment (field-independent basis, Debye):
    X=              0.0000    Y=              0.0000    Z=              4.7405  Tot=              4.7405
 Quadrupole moment (field-independent basis, Debye-Ang):
   XX=            -15.4334   YY=            -15.4333   ZZ=            -18.2519
   XY=              0.0000   XZ=              0.0000   YZ=              0.0000

 \\#P ROCCSD(T)=(MaxCyc=150, Full)/Gen SCF=(maxcycle=400, vshift=200) P
 \PMP2-0=-124.0555477\MP4SDQ=-124.0398323\CCSD=-124.0338324\CCSD(T)=-12
 Normal termination of Gaussian 16 at Sat Mar 24 00:37:56 2018.
