 Gaussian 16, Revision A.03,
 Gaussian 16:  ES64L-G16RevA.03 25-Dec-2016

 ----------------------------------------------------------------------
 #P ROCCSD(T)=(maxcyc=150, Full)/Gen 5d 7f SCF=(maxcycles=300, NoVarAcc
 , VShift=200) MaxDisk=100GB Pop=Regular Pseudo=Read Guess=Read
 ----------------------------------------------------------------------

 --
 Ti
 --
 Symbolic Z-matrix:
 Charge =  0 Multiplicity = 3

                         Standard orientation:
 ---------------------------------------------------------------------
 Center     Atomic      Atomic             Coordinates (Angstroms)
 Number     Number       Type             X           Y           Z
 ---------------------------------------------------------------------
      1         22           0        0.000000    0.000000    0.000000
 ---------------------------------------------------------------------

 SCF Done:  E(ROHF) =  -57.5221624510     A.U. after   19 cycles
 E2 =    -0.4122671531D+00 EUMP2 =    -0.57934429604091D+02
 CCSD(T)
 CCSD(T)= -0.57971642015D+02

 Unable to determine electronic state:  an orbital has unidentified symmetry.
 Alpha  occ. eigenvalues --   -2.98828  -1.89618  -1.89618  -1.89618  -0.43819
 Alpha  occ. eigenvalues --   -0.43819  -0.23006
 Alpha virt. eigenvalues --    0.01444   0.01444   0.01444   0.02395   0.05302
 Alpha virt. eigenvalues --    0.05302   0.05302   0.05378   0.05378   0.05378
 Alpha virt. eigenvalues --    0.05462   0.05462   0.12214   0.12214   0.12214

 Mulliken charges and spin densities:
               1          2
     1  Ti  -0.000000   2.000000
 Sum of Mulliken charges =  -0.00000   2.00000

 Dipole moment (field-independent basis, Debye):
    X=             -0.0000    Y=             -0.0000    Z=             -0.0000  Tot=              0.0000
 Quadrupole moment (field-independent basis, Debye-Ang):
   XX=            -21.9928   YY=            -21.9928   ZZ=            -21.9928
   XY=             -0.0000   XZ=             -0.0000   YZ=             -0.0000

 1\1\GINC-C465-021\SP\ROCCSD(T)-Full\Gen\Ti1(3)\AANNABE\13-Mar-2018\0\\
 #P ROCCSD(T)=(maxcyc=150, Full)/Gen 5d 7f SCF=(maxcycles=300, NoVarAcc
 , VShift=200) MaxDisk=100GB Pop=Regular Pseudo=Read Guess=Read\\Ti\\0,
 3\Ti,0,0.,0.,0.\\Version=ES64L-G16RevA.03\HF=-57.5221625\MP2=-57.93442
 96\MP3=-57.955493\PUHF=-57.5221625\PMP2-0=-57.9344296\MP4SDQ=-57.95587
 83\CCSD=-57.956281\CCSD(T)=-57.971642\RMSD=9.528e-09\PG=OH [O(Ti1)]\\@

 Normal termination of Gaussian 16 at Tue Mar 13 12:25:57 2018.
