 Gaussian 16, Revision A.03,
 Gaussian 16:  ES64L-G16RevA.03 25-Dec-2016

 ----------------------------------------------------------------------
 #P ROCCSD(T)=(MaxCyc=150, Full)/Gen SCF=(maxcycle=400) Pseudo=Read Int
 egral(NoXCTest) Pop=Regular MaxDisk=500GB Guess=Read IOp(5/15=2)
 ----------------------------------------------------------------------

 ---
 CoO
 ---
 Symbolic Z-matrix:
 Charge =  0 Multiplicity = 4

                         Standard orientation:
 ---------------------------------------------------------------------
 Center     Atomic      Atomic             Coordinates (Angstroms)
 Number     Number       Type             X           Y           Z
 ---------------------------------------------------------------------
      1         27           0        0.000000    0.000000    0.411429
      2          8           0        0.000000    0.000000   -1.388571
 ---------------------------------------------------------------------

 SCF Done:  E(ROHF) =  -160.327374368     A.U. after   25 cycles
 E2 =    -0.1052198369D+01 EUMP2 =    -0.16137957273704D+03
 CCSD(T)
 CCSD(T)= -0.16140524785D+03

 Unable to determine electronic state:  partially filled degenerate orbitals.
 Alpha  occ. eigenvalues --   -4.84781  -3.29429  -3.29429  -3.29375  -1.14341
 Alpha  occ. eigenvalues --   -0.76922  -0.76922  -0.76608  -0.71560  -0.69518
 Alpha  occ. eigenvalues --   -0.38456  -0.38456  -0.34893
 Alpha virt. eigenvalues --   -0.05282   0.01906   0.01906   0.02090   0.04163
 Alpha virt. eigenvalues --    0.07398   0.07398   0.09867   0.10632   0.10661
 Alpha virt. eigenvalues --    0.11521   0.11521   0.14552   0.15299   0.25894

 Mulliken charges and spin densities:
               1          2
     1  Co   0.981227   2.956230
     2  O   -0.981227   0.043770
 Sum of Mulliken charges =  -0.00000   3.00000

 Dipole moment (field-independent basis, Debye):
    X=              0.0000    Y=              0.0000    Z=              8.0085  Tot=              8.0085
 Quadrupole moment (field-independent basis, Debye-Ang):
   XX=            -19.2003   YY=            -19.2003   ZZ=            -22.8822
   XY=              0.0000   XZ=              0.0000   YZ=              0.0000

 \\#P ROCCSD(T)=(MaxCyc=150, Full)/Gen SCF=(maxcycle=400) Pseudo=Read I
 3795727\MP4SDQ=-161.3581613\CCSD=-161.3504892\CCSD(T)=-161.4052479\RMS
 Normal termination of Gaussian 16 at Sat Mar 31 14:42:52 2018.
