 Gaussian 16, Revision A.03,
 Gaussian 16:  ES64L-G16RevA.03 25-Dec-2016

 ----------------------------------------------------------------------
 #P ROCCSD(T)=(MaxCyc=150, Full)/Gen SCF=(maxcycle=400) Pseudo=Read Int
 egral(NoXCTest) Pop=Regular MaxDisk=500GB Guess=Read IOp(5/15=2)
 ----------------------------------------------------------------------

 ---
 CoO
 ---
 Symbolic Z-matrix:
 Charge =  0 Multiplicity = 4

                         Standard orientation:
 ---------------------------------------------------------------------
 Center     Atomic      Atomic             Coordinates (Angstroms)
 Number     Number       Type             X           Y           Z
 ---------------------------------------------------------------------
      1         27           0        0.000000    0.000000    0.411429
      2          8           0        0.000000    0.000000   -1.388571
 ---------------------------------------------------------------------

 SCF Done:  E(ROHF) =  -160.330180201     A.U. after   20 cycles
 E2 =    -0.1103860407D+01 EUMP2 =    -0.16143404060807D+03
 CCSD(T)
 CCSD(T)= -0.16145716651D+03

 Unable to determine electronic state:  partially filled degenerate orbitals.
 Alpha  occ. eigenvalues --   -4.84767  -3.29408  -3.29408  -3.29351  -1.14307
 Alpha  occ. eigenvalues --   -0.76912  -0.76912  -0.76598  -0.71552  -0.69506
 Alpha  occ. eigenvalues --   -0.38474  -0.38474  -0.34874
 Alpha virt. eigenvalues --   -0.05271   0.01630   0.01630   0.01854   0.03744
 Alpha virt. eigenvalues --    0.06528   0.06528   0.07030   0.07040   0.07114
 Alpha virt. eigenvalues --    0.08022   0.08022   0.12294   0.14294   0.20884

 Mulliken charges and spin densities:
               1          2
     1  Co   0.961533   2.956211
     2  O   -0.961533   0.043789
 Sum of Mulliken charges =  -0.00000   3.00000

 Dipole moment (field-independent basis, Debye):
    X=              0.0000    Y=              0.0000    Z=              7.9936  Tot=              7.9936
 Quadrupole moment (field-independent basis, Debye-Ang):
   XX=            -19.1964   YY=            -19.1964   ZZ=            -22.8627
   XY=              0.0000   XZ=              0.0000   YZ=              0.0000

 \\#P ROCCSD(T)=(MaxCyc=150, Full)/Gen SCF=(maxcycle=400) Pseudo=Read I
 .4340406\MP4SDQ=-161.4068888\CCSD=-161.4001394\CCSD(T)=-161.4571665\RM
 Normal termination of Gaussian 16 at Sat Mar 31 17:06:41 2018.
