 Gaussian 16, Revision A.03,
 Gaussian 16:  ES64L-G16RevA.03 25-Dec-2016

 ----------------------------------------------------------------------
 #P ROCCSD(T)=(maxcyc=150, Full, SaveAmplitudes, ReadAmplitudes)/Gen 5d
  7f SCF=(maxcycles=300) Integral(NoXCTest) MaxDisk=500GB Pop=Regular P
 seudo=Read Guess=Read
 ----------------------------------------------------------------------

 ---
 ScO
 ---
 Symbolic Z-matrix:
 Charge =  0 Multiplicity = 2

                         Standard orientation:
 ---------------------------------------------------------------------
 Center     Atomic      Atomic             Coordinates (Angstroms)
 Number     Number       Type             X           Y           Z
 ---------------------------------------------------------------------
      1         21           0        0.000000    0.000000    0.496552
      2          8           0        0.000000    0.000000   -1.303448
 ---------------------------------------------------------------------

 SCF Done:  E(ROHF) =  -61.9412941375     A.U. after   17 cycles
 E2 =    -0.7153411516D+00 EUMP2 =    -0.62656635289164D+02
 CCSD(T)
 CCSD(T)= -0.62685609183D+02

 The electronic state is 2-SG.
 Alpha  occ. eigenvalues --   -2.69037  -1.67130  -1.65989  -1.65989  -1.11956
 Alpha  occ. eigenvalues --   -0.41532  -0.38590  -0.38590  -0.26424
 Alpha virt. eigenvalues --   -0.00444  -0.00444   0.01072   0.01947   0.02660
 Alpha virt. eigenvalues --    0.02660   0.02783   0.02783   0.03224   0.03224
 Alpha virt. eigenvalues --    0.03602   0.04084   0.06106   0.06106   0.09113

 Mulliken charges and spin densities:
               1          2
     1  Sc   1.253546   0.985103
     2  O   -1.253546   0.014897
 Sum of Mulliken charges =  -0.00000   1.00000

 Dipole moment (field-independent basis, Debye):
    X=              0.0000    Y=              0.0000    Z=              5.7700  Tot=              5.7700
 Quadrupole moment (field-independent basis, Debye-Ang):
   XX=            -21.8844   YY=            -21.8844   ZZ=            -33.3342
   XY=              0.0000   XZ=              0.0000   YZ=              0.0000

 \\#P ROCCSD(T)=(maxcyc=150, Full, SaveAmplitudes, ReadAmplitudes)/Gen
 412941\PMP2-0=-62.6566353\CCSD=-62.6399482\CCSD(T)=-62.6856092\RMSD=2.
 Normal termination of Gaussian 16 at Tue Mar 13 13:34:51 2018.
