 Gaussian 16, Revision A.03,
 Gaussian 16:  ES64L-G16RevA.03 25-Dec-2016

 ----------------------------------------------------------------------
 #P ROCCSD(T)=(maxcyc=150, Full)/Gen 5d 7f SCF=(maxcycles=300) Integral
 (NoXCTest) MaxDisk=500GB Pop=Regular Pseudo=Read Guess=Read
 ----------------------------------------------------------------------

 ---
 ScH
 ---
 Symbolic Z-matrix:
 Charge =  0 Multiplicity = 1

                         Standard orientation:
 ---------------------------------------------------------------------
 Center     Atomic      Atomic             Coordinates (Angstroms)
 Number     Number       Type             X           Y           Z
 ---------------------------------------------------------------------
      1         21           0        0.000000    0.000000    0.059091
      2          1           0        0.000000    0.000000   -1.240909
 ---------------------------------------------------------------------

 SCF Done:  E(ROHF) =  -46.5914474680     A.U. after   11 cycles
 E2 =    -0.4317675081D+00 EUMP2 =    -0.47023214976127D+02
 CCSD(T)
 CCSD(T)= -0.47061705985D+02

 The electronic state is 1-SG.
 Alpha  occ. eigenvalues --   -2.62712  -1.63402  -1.60491  -1.60491  -0.46208
 Alpha  occ. eigenvalues --   -0.21671
 Alpha virt. eigenvalues --    0.01294   0.01294   0.01462   0.01941   0.02889
 Alpha virt. eigenvalues --    0.02889   0.02897   0.02897   0.02903   0.04395
 Alpha virt. eigenvalues --    0.04408   0.04408   0.07921   0.08203   0.08203

 Mulliken charges and spin densities:
               1          2
     1  Sc   0.263866   0.000000
     2  H   -0.263866   0.000000
 Sum of Mulliken charges =  -0.00000   0.00000

 Dipole moment (field-independent basis, Debye):
    X=              0.0000    Y=              0.0000    Z=              0.6738  Tot=              0.6738
 Quadrupole moment (field-independent basis, Debye-Ang):
   XX=            -23.5839   YY=            -23.5839   ZZ=            -23.1419
   XY=              0.0000   XZ=              0.0000   YZ=              0.0000

 P ROCCSD(T)=(maxcyc=150, Full)/Gen 5d 7f SCF=(maxcycles=300) Integral(
 3215\MP4SDQ=-47.0435991\CCSD=-47.0430843\CCSD(T)=-47.061706\RMSD=6.484
 Normal termination of Gaussian 16 at Mon Feb 12 20:24:35 2018.
