 Gaussian 16, Revision A.03,
 Gaussian 16:  ES64L-G16RevA.03 25-Dec-2016

 ----------------------------------------------------------------------
 #P ROCCSD(T)=(maxcyc=150, Full, SaveAmplitudes, ReadAmplitudes)/Gen 5d
  7f SCF=(maxcycles=300, VShift=200) Integral(NoXCTest) MaxDisk=500GB P
 op=Regular Pseudo=Read Guess=Read
 ----------------------------------------------------------------------

 ---
 MnO
 ---
 Symbolic Z-matrix:
 Charge =  0 Multiplicity = 6

                         Standard orientation:
 ---------------------------------------------------------------------
 Center     Atomic      Atomic             Coordinates (Angstroms)
 Number     Number       Type             X           Y           Z
 ---------------------------------------------------------------------
      1         25           0        0.000000    0.000000    0.315152
      2          8           0        0.000000    0.000000   -0.984848
 ---------------------------------------------------------------------

 SCF Done:  E(ROHF) =  -118.960990032     A.U. after   24 cycles
 E2 =    -0.9724079166D+00 EUMP2 =    -0.11993339794846D+03
 CCSD(T)
 CCSD(T)= -0.11993819582D+03

 The electronic state is 6-SG.
 Alpha  occ. eigenvalues --   -4.13623  -2.77461  -2.77460  -2.77460  -1.27651
 Alpha  occ. eigenvalues --   -0.73396  -0.73396  -0.61341  -0.61341  -0.60194
 Alpha  occ. eigenvalues --   -0.40645  -0.40645  -0.30134
 Alpha virt. eigenvalues --    0.01807   0.02218   0.02218   0.02926   0.05364
 Alpha virt. eigenvalues --    0.05975   0.05975   0.05981   0.05981   0.07540
 Alpha virt. eigenvalues --    0.07540   0.07767   0.11218   0.14790   0.18087

 Mulliken charges and spin densities:
               1          2
     1  Mn   1.012270   4.729101
     2  O   -1.012270   0.270899
 Sum of Mulliken charges =  -0.00000   5.00000

 Dipole moment (field-independent basis, Debye):
    X=              0.0000    Y=              0.0000    Z=              2.7083  Tot=              2.7083
 Quadrupole moment (field-independent basis, Debye-Ang):
   XX=            -19.8491   YY=            -19.8491   ZZ=            -22.8878
   XY=              0.0000   XZ=              0.0000   YZ=              0.0000

 \\#P ROCCSD(T)=(maxcyc=150, Full, SaveAmplitudes, ReadAmplitudes)/Gen
 9\PUHF=-118.96099\PMP2-0=-119.9333979\CCSD=-119.8969652\CCSD(T)=-119.9
 Normal termination of Gaussian 16 at Fri Mar 16 04:03:11 2018.
