 Gaussian 16, Revision A.03,
 Gaussian 16:  ES64L-G16RevA.03 25-Dec-2016

 ----------------------------------------------------------------------
 #P ROCCSD(T)=(MaxCyc=150, Full)/Gen SCF=(maxcycle=400) Pseudo=Read Int
 egral(NoXCTest) Pop=Regular MaxDisk=500GB Guess=Read IOp(5/15=2)
 ----------------------------------------------------------------------

 ---
 CoO
 ---
 Symbolic Z-matrix:
 Charge =  0 Multiplicity = 4

                         Standard orientation:
 ---------------------------------------------------------------------
 Center     Atomic      Atomic             Coordinates (Angstroms)
 Number     Number       Type             X           Y           Z
 ---------------------------------------------------------------------
      1         27           0        0.000000    0.000000    0.297143
      2          8           0        0.000000    0.000000   -1.002857
 ---------------------------------------------------------------------

 SCF Done:  E(ROHF) =  -160.462126825     A.U. after   26 cycles
 E2 =    -0.1154225537D+01 EUMP2 =    -0.16161635236186D+03
 CCSD(T)
 CCSD(T)= -0.16160671086D+03

 Unable to determine electronic state:  partially filled degenerate orbitals.
 Alpha  occ. eigenvalues --   -4.74301  -3.28295  -3.24548  -3.24548  -1.30447
 Alpha  occ. eigenvalues --   -0.84576  -0.84576  -0.76598  -0.71439  -0.70656
 Alpha  occ. eigenvalues --   -0.47101  -0.47101  -0.34506
 Alpha virt. eigenvalues --   -0.00434   0.02825   0.02825   0.03677   0.04076
 Alpha virt. eigenvalues --    0.09050   0.09050   0.10654   0.11260   0.11286
 Alpha virt. eigenvalues --    0.11582   0.11582   0.13620   0.17181   0.25837

 Mulliken charges and spin densities:
               1          2
     1  Co   0.796757   2.714687
     2  O   -0.796757   0.285313
 Sum of Mulliken charges =  -0.00000   3.00000

 Dipole moment (field-independent basis, Debye):
    X=              0.0000    Y=              0.0000    Z=              3.9101  Tot=              3.9101
 Quadrupole moment (field-independent basis, Debye-Ang):
   XX=            -19.5876   YY=            -19.5876   ZZ=            -19.8996
   XY=              0.0000   XZ=              0.0000   YZ=              0.0000

 \\#P ROCCSD(T)=(MaxCyc=150, Full)/Gen SCF=(maxcycle=400) Pseudo=Read I
 .6163524\MP4SDQ=-161.5800847\CCSD=-161.5555131\CCSD(T)=-161.6067109\RM
 Normal termination of Gaussian 16 at Sat Mar 31 14:37:58 2018.
