 Gaussian 16, Revision A.03,
 Gaussian 16:  ES64L-G16RevA.03 25-Dec-2016

 ----------------------------------------------------------------------
 #P ROCCSD(T)=(MaxCyc=150, Full)/Gen SCF=(maxcycle=400) Pseudo=Read Int
 egral(NoXCTest) Pop=Regular MaxDisk=500GB Guess=Read IOp(5/15=2)
 ----------------------------------------------------------------------

 ---
 CoO
 ---
 Symbolic Z-matrix:
 Charge =  0 Multiplicity = 4

                         Standard orientation:
 ---------------------------------------------------------------------
 Center     Atomic      Atomic             Coordinates (Angstroms)
 Number     Number       Type             X           Y           Z
 ---------------------------------------------------------------------
      1         27           0        0.000000    0.000000    0.297143
      2          8           0        0.000000    0.000000   -1.002857
 ---------------------------------------------------------------------

 SCF Done:  E(ROHF) =  -160.465843992     A.U. after   21 cycles
 E2 =    -0.1206448251D+01 EUMP2 =    -0.16167229224320D+03
 CCSD(T)
 CCSD(T)= -0.16166024582D+03

 Unable to determine electronic state:  partially filled degenerate orbitals.
 Alpha  occ. eigenvalues --   -4.74258  -3.28262  -3.24529  -3.24529  -1.30403
 Alpha  occ. eigenvalues --   -0.84592  -0.84592  -0.76609  -0.71451  -0.70659
 Alpha  occ. eigenvalues --   -0.47121  -0.47121  -0.34488
 Alpha virt. eigenvalues --   -0.00447   0.02540   0.02540   0.03377   0.03807
 Alpha virt. eigenvalues --    0.07081   0.07081   0.07181   0.07358   0.07366
 Alpha virt. eigenvalues --    0.09087   0.09087   0.12032   0.16068   0.21662

 Mulliken charges and spin densities:
               1          2
     1  Co   0.783491   2.718234
     2  O   -0.783491   0.281766
 Sum of Mulliken charges =   0.00000   3.00000

 Dipole moment (field-independent basis, Debye):
    X=              0.0000    Y=              0.0000    Z=              3.8969  Tot=              3.8969
 Quadrupole moment (field-independent basis, Debye-Ang):
   XX=            -19.5899   YY=            -19.5899   ZZ=            -19.8842
   XY=              0.0000   XZ=              0.0000   YZ=              0.0000

 \\#P ROCCSD(T)=(MaxCyc=150, Full)/Gen SCF=(maxcycle=400) Pseudo=Read I
 722922\MP4SDQ=-161.6305492\CCSD=-161.6067368\CCSD(T)=-161.6602458\RMSD
 Normal termination of Gaussian 16 at Sat Mar 31 16:45:30 2018.
