 Gaussian 16, Revision A.03,
 Gaussian 16:  ES64L-G16RevA.03 25-Dec-2016

 ----------------------------------------------------------------------
 #P ROCCSD(T)=(MaxCyc=150, Full)/Gen SCF=(maxcycle=400, vshift=200) Pse
 udo=Read Integral(NoXCTest) Pop=Regular MaxDisk=500GB Guess=Read IOp(5
 /15=2)
 ----------------------------------------------------------------------

 ---
 FeH
 ---
 Symbolic Z-matrix:
 Charge =  0 Multiplicity = 4

                         Standard orientation:
 ---------------------------------------------------------------------
 Center     Atomic      Atomic             Coordinates (Angstroms)
 Number     Number       Type             X           Y           Z
 ---------------------------------------------------------------------
      1         26           0        0.000000    0.000000    0.074074
      2          1           0        0.000000    0.000000   -1.925926
 ---------------------------------------------------------------------

 SCF Done:  E(ROHF) =  -123.276053860     A.U. after   36 cycles
 E2 =    -0.7524303816D+00 EUMP2 =    -0.12402848424205D+03
 CCSD(T)
 CCSD(T)= -0.12403862652D+03

 Unable to determine electronic state:  an orbital has unidentified symmetry.
 Alpha  occ. eigenvalues --   -4.15692  -2.77764  -2.77640  -2.77640  -0.48673
 Alpha  occ. eigenvalues --   -0.48673  -0.48672  -0.43703  -0.42575  -0.30911
 Alpha virt. eigenvalues --   -0.01316   0.02267   0.02267   0.03517   0.03531
 Alpha virt. eigenvalues --    0.08246   0.08246   0.09330   0.09964   0.10007
 Alpha virt. eigenvalues --    0.10316   0.10316   0.11288   0.16709   0.21748

 Mulliken charges and spin densities:
               1          2
     1  Fe   0.435198   2.999608
     2  H   -0.435198   0.000392
 Sum of Mulliken charges =  -0.00000   3.00000

 Dipole moment (field-independent basis, Debye):
    X=              0.0000    Y=              0.0000    Z=              5.5669  Tot=              5.5669
 Quadrupole moment (field-independent basis, Debye-Ang):
   XX=            -15.2016   YY=            -15.2016   ZZ=            -20.8959
   XY=              0.0000   XZ=              0.0000   YZ=              0.0000

 \\#P ROCCSD(T)=(MaxCyc=150, Full)/Gen SCF=(maxcycle=400, vshift=200) P
 PMP2-0=-124.0284842\MP4SDQ=-124.0157566\CCSD=-124.014312\CCSD(T)=-124.
 Normal termination of Gaussian 16 at Sat Mar 24 00:40:27 2018.
