 Gaussian 16, Revision A.03,
 Gaussian 16:  ES64L-G16RevA.03 25-Dec-2016

 ----------------------------------------------------------------------
 #P ROCCSD(T)=(MaxCyc=150, Full)/Gen SCF=(maxcycle=400, vshift=200) Pse
 udo=Read Integral(NoXCTest) Pop=Regular MaxDisk=500GB Guess=Read IOp(5
 /15=2)
 ----------------------------------------------------------------------

 ---
 FeH
 ---
 Symbolic Z-matrix:
 Charge =  0 Multiplicity = 4

                         Standard orientation:
 ---------------------------------------------------------------------
 Center     Atomic      Atomic             Coordinates (Angstroms)
 Number     Number       Type             X           Y           Z
 ---------------------------------------------------------------------
      1         26           0        0.000000    0.000000    0.074074
      2          1           0        0.000000    0.000000   -1.925926
 ---------------------------------------------------------------------

 SCF Done:  E(ROHF) =  -123.277653569     A.U. after   17 cycles
 E2 =    -0.8025347131D+00 EUMP2 =    -0.12408018828191D+03
 CCSD(T)
 CCSD(T)= -0.12408629237D+03

 Unable to determine electronic state:  an orbital has unidentified symmetry.
 Alpha  occ. eigenvalues --   -4.15674  -2.77748  -2.77626  -2.77626  -0.48678
 Alpha  occ. eigenvalues --   -0.48677  -0.48677  -0.43715  -0.42592  -0.30912
 Alpha virt. eigenvalues --   -0.01333   0.01963   0.01963   0.02698   0.02979
 Alpha virt. eigenvalues --    0.05727   0.06083   0.06095   0.06375   0.06375
 Alpha virt. eigenvalues --    0.07190   0.07190   0.09086   0.12340   0.15131

 Mulliken charges and spin densities:
               1          2
     1  Fe   0.342822   2.998071
     2  H   -0.342822   0.001929
 Sum of Mulliken charges =  -0.00000   3.00000

 Dipole moment (field-independent basis, Debye):
    X=              0.0000    Y=              0.0000    Z=              5.5629  Tot=              5.5629
 Quadrupole moment (field-independent basis, Debye-Ang):
   XX=            -15.1858   YY=            -15.1858   ZZ=            -20.9145
   XY=              0.0000   XZ=              0.0000   YZ=              0.0000

 \\#P ROCCSD(T)=(MaxCyc=150, Full)/Gen SCF=(maxcycle=400, vshift=200) P
 PMP2-0=-124.0801883\MP4SDQ=-124.0613723\CCSD=-124.0584917\CCSD(T)=-124
 Normal termination of Gaussian 16 at Sat Mar 24 03:28:48 2018.
