 Gaussian 16, Revision A.03,
 Gaussian 16:  ES64L-G16RevA.03 25-Dec-2016

 ----------------------------------------------------------------------
 #P ROCCSD(T)=(MaxCyc=150, Full)/Gen SCF=(maxcycle=400, vshift=200) Pse
 udo=Read Integral(NoXCTest) Pop=Regular MaxDisk=500GB Guess=Read IOp(5
 /15=2)
 ----------------------------------------------------------------------

 ---
 FeH
 ---
 Symbolic Z-matrix:
 Charge =  0 Multiplicity = 4

                         Standard orientation:
 ---------------------------------------------------------------------
 Center     Atomic      Atomic             Coordinates (Angstroms)
 Number     Number       Type             X           Y           Z
 ---------------------------------------------------------------------
      1         26           0        0.000000    0.000000    0.074074
      2          1           0        0.000000    0.000000   -1.925926
 ---------------------------------------------------------------------

 SCF Done:  E(ROHF) =  -123.277477333     A.U. after   29 cycles
 E2 =    -0.7882950955D+00 EUMP2 =    -0.12406577242864D+03
 CCSD(T)
 CCSD(T)= -0.12407390913D+03

 Unable to determine electronic state:  an orbital has unidentified symmetry.
 Alpha  occ. eigenvalues --   -4.15676  -2.77751  -2.77628  -2.77628  -0.48680
 Alpha  occ. eigenvalues --   -0.48680  -0.48680  -0.43712  -0.42588  -0.30912
 Alpha virt. eigenvalues --   -0.01321   0.02027   0.02027   0.03227   0.03266
 Alpha virt. eigenvalues --    0.06188   0.06636   0.06651   0.06864   0.06864
 Alpha virt. eigenvalues --    0.07566   0.07567   0.10457   0.14957   0.17376

 Mulliken charges and spin densities:
               1          2
     1  Fe   0.378040   2.999044
     2  H   -0.378040   0.000956
 Sum of Mulliken charges =  -0.00000   3.00000

 Dipole moment (field-independent basis, Debye):
    X=              0.0000    Y=              0.0000    Z=              5.5630  Tot=              5.5630
 Quadrupole moment (field-independent basis, Debye-Ang):
   XX=            -15.1879   YY=            -15.1879   ZZ=            -20.9111
   XY=              0.0000   XZ=              0.0000   YZ=              0.0000

 \\#P ROCCSD(T)=(MaxCyc=150, Full)/Gen SCF=(maxcycle=400, vshift=200) P
 PMP2-0=-124.0657724\MP4SDQ=-124.0495312\CCSD=-124.0470151\CCSD(T)=-124
 Normal termination of Gaussian 16 at Sat Mar 24 01:29:47 2018.
