 Gaussian 16, Revision A.03,
 Gaussian 16:  ES64L-G16RevA.03 25-Dec-2016

 ----------------------------------------------------------------------
 #P ROCCSD(T)=(maxcyc=150, Full, SaveAmplitudes, ReadAmplitudes)/Gen 5d
  7f SCF=(maxcycles=300) Integral(NoXCTest) MaxDisk=500GB Pop=Regular P
 seudo=Read Guess=Read IOp(5/15=2)
 ----------------------------------------------------------------------

 ---
 TiO
 ---
 Symbolic Z-matrix:
 Charge =  0 Multiplicity = 3

                         Standard orientation:
 ---------------------------------------------------------------------
 Center     Atomic      Atomic             Coordinates (Angstroms)
 Number     Number       Type             X           Y           Z
 ---------------------------------------------------------------------
      1         22           0        0.000000    0.000000    0.480000
      2          8           0        0.000000    0.000000   -1.320000
 ---------------------------------------------------------------------

 SCF Done:  E(ROHF) =  -73.3661213851     A.U. after   22 cycles
 E2 =    -0.7504445080D+00 EUMP2 =    -0.74116565893146D+02
 CCSD(T)
 CCSD(T)= -0.74151846174D+02

 Unable to determine electronic state:  an orbital has unidentified symmetry.
 Alpha  occ. eigenvalues --   -3.06100  -1.96096  -1.96096  -1.92006  -1.14047
 Alpha  occ. eigenvalues --   -0.50768  -0.43352  -0.39574  -0.39574  -0.28667
 Alpha virt. eigenvalues --   -0.00488  -0.00488   0.00763   0.02225   0.03570
 Alpha virt. eigenvalues --    0.03570   0.04100   0.04673   0.05076   0.05920
 Alpha virt. eigenvalues --    0.05920   0.06156   0.08430   0.10829   0.11744

 Mulliken charges and spin densities:
               1          2
     1  Ti   0.944363   1.988132
     2  O   -0.944363   0.011868
 Sum of Mulliken charges =  -0.00000   2.00000

 Dipole moment (field-independent basis, Debye):
    X=              0.0000    Y=              0.0000    Z=              6.0521  Tot=              6.0521
 Quadrupole moment (field-independent basis, Debye-Ang):
   XX=            -21.6188   YY=            -21.6188   ZZ=            -30.3602
   XY=              0.0000   XZ=              0.0000   YZ=              0.0000

 \\#P ROCCSD(T)=(maxcyc=150, Full, SaveAmplitudes, ReadAmplitudes)/Gen
 .0993352\CCSD(T)=-74.1518462\RMSD=7.962e-09\PG=C*V [C*(O1Ti1)]\\@
 Normal termination of Gaussian 16 at Fri Mar  9 15:45:00 2018.
