 Gaussian 16, Revision A.03,
 Gaussian 16:  ES64L-G16RevA.03 25-Dec-2016

 ----------------------------------------------------------------------
 #P ROCCSD(T)=(maxcyc=150, Full, SaveAmplitudes, ReadAmplitudes)/Gen 5d
  7f SCF=(maxcycles=300) Integral(NoXCTest) MaxDisk=500GB Pop=Regular P
 seudo=Read Guess=Read IOp(5/15=2)
 ----------------------------------------------------------------------

 ---
 CrO
 ---
 Symbolic Z-matrix:
 Charge =  0 Multiplicity = 5

                         Standard orientation:
 ---------------------------------------------------------------------
 Center     Atomic      Atomic             Coordinates (Angstroms)
 Number     Number       Type             X           Y           Z
 ---------------------------------------------------------------------
      1         24           0        0.000000    0.000000    0.425000
      2          8           0        0.000000    0.000000   -1.275000
 ---------------------------------------------------------------------

 SCF Done:  E(ROHF) =  -101.876498275     A.U. after   40 cycles
 E2 =    -0.8602981617D+00 EUMP2 =    -0.10273679643623D+03
 CCSD(T)
 CCSD(T)= -0.10278163394D+03

 Unable to determine electronic state:  an orbital has unidentified symmetry.
 Alpha  occ. eigenvalues --   -3.76192  -2.50862  -2.46212  -2.45027  -1.12059
 Alpha  occ. eigenvalues --   -0.56116  -0.55962  -0.54234  -0.49714  -0.36685
 Alpha  occ. eigenvalues --   -0.33926  -0.32749
 Alpha virt. eigenvalues --   -0.03379   0.00885   0.01577   0.02222   0.03725
 Alpha virt. eigenvalues --    0.05089   0.06380   0.07509   0.07525   0.07690
 Alpha virt. eigenvalues --    0.08310   0.08792   0.13279   0.14654   0.15654

 Mulliken charges and spin densities:
               1          2
     1  Cr   1.185063   3.904851
     2  O   -1.185063   0.095149
 Sum of Mulliken charges =  -0.00000   4.00000

 Dipole moment (field-independent basis, Debye):
    X=              0.0000    Y=              0.0000    Z=              8.8463  Tot=              8.8463
 Quadrupole moment (field-independent basis, Debye-Ang):
   XX=            -19.7657   YY=            -18.7370   ZZ=            -23.1638
   XY=              0.0000   XZ=              0.0000   YZ=              0.0000

 \\#P ROCCSD(T)=(maxcyc=150, Full, SaveAmplitudes, ReadAmplitudes)/Gen
 SD=-102.7315488\CCSD(T)=-102.7816339\RMSD=2.940e-09\PG=C*V [C*(O1Cr1)]
 Normal termination of Gaussian 16 at Tue Mar 13 06:33:52 2018.
