 Gaussian 16, Revision A.03,
 Gaussian 16:  ES64L-G16RevA.03 25-Dec-2016

 ----------------------------------------------------------------------
 #P ROHF/Gen 5d 7f SCF=(maxcycles=300) Integral(NoXCTest, DKHSO) MaxDis
 k=500GB Pop=Regular
 ----------------------------------------------------------------------

 ---
 MnO
 ---
 Symbolic Z-matrix:
 Charge =  0 Multiplicity = 6

                         Standard orientation:
 ---------------------------------------------------------------------
 Center     Atomic      Atomic             Coordinates (Angstroms)
 Number     Number       Type             X           Y           Z
 ---------------------------------------------------------------------
      1         25           0        0.000000    0.000000    0.387879
      2          8           0        0.000000    0.000000   -1.212121
 ---------------------------------------------------------------------

 SCF Done:  E(ROHF) =  -1232.21341269     A.U. after   32 cycles

 The electronic state is 6-SG.
 Alpha  occ. eigenvalues -- -242.49690 -29.52252 -24.87794 -24.87557 -24.87557
 Alpha  occ. eigenvalues --  -20.44677  -3.83026  -2.44032  -2.42465  -2.42465
 Alpha  occ. eigenvalues --   -1.11333  -0.40024  -0.38981  -0.38981  -0.09377
 Alpha  occ. eigenvalues --   -0.09377  -0.07870  -0.07334  -0.07334
 Alpha virt. eigenvalues --   -0.02092   0.01982   0.01982   0.02756   0.03903
 Alpha virt. eigenvalues --    0.07395   0.07395   0.08547   0.08621   0.08621
 Alpha virt. eigenvalues --    0.09992   0.09992   0.14035   0.14465   0.24633

 Mulliken charges and spin densities:
               1          2
     1  Mn   1.137805   4.855725
     2  O   -1.137805   0.144275
 Sum of Mulliken charges =  -0.00000   5.00000

 Dipole moment (field-independent basis, Debye):
    X=              0.0000    Y=              0.0000    Z=              8.2262  Tot=              8.2262
 Quadrupole moment (field-independent basis, Debye-Ang):
   XX=            -19.1861   YY=            -19.1861   ZZ=            -23.3473
   XY=              0.0000   XZ=              0.0000   YZ=              0.0000

 Normal termination of Gaussian 16 at Tue Mar  6 17:10:42 2018.
