 Gaussian 16, Revision A.03,
 Gaussian 16:  ES64L-G16RevA.03 25-Dec-2016

 ----------------------------------------------------------------------
 #P ROCCSD(T)=(maxcyc=100, Full)/Gen SCF=(maxcycle=400, symm) Pseudo=Re
 ad Integral(NoXCTest) Pop=Regular MaxDisk=500GB Guess=Permute IOp(5/15
 =2)
 ----------------------------------------------------------------------

 ---
 FeH
 ---
 Symbolic Z-matrix:
 Charge =  0 Multiplicity = 4

                         Standard orientation:
 ---------------------------------------------------------------------
 Center     Atomic      Atomic             Coordinates (Angstroms)
 Number     Number       Type             X           Y           Z
 ---------------------------------------------------------------------
      1         26           0        0.000000    0.000000    0.048148
      2          1           0        0.000000    0.000000   -1.251852
 ---------------------------------------------------------------------

 SCF Done:  E(ROHF) =  -123.560792856     A.U. after   29 cycles
 E2 =    -0.7769022959D+00 EUMP2 =    -0.12433769515187D+03
 CCSD(T)
 CCSD(T)= -0.12433330275D+03

 Unable to determine electronic state:  an orbital has unidentified symmetry.
 Alpha  occ. eigenvalues --   -4.32713  -2.81288  -2.79601  -2.79601  -0.53879
 Alpha  occ. eigenvalues --   -0.53879  -0.51931  -0.51490  -0.47007  -0.31026
 Alpha virt. eigenvalues --    0.00287   0.02485   0.02485   0.02941   0.04658
 Alpha virt. eigenvalues --    0.08392   0.08392   0.09592   0.10312   0.10312
 Alpha virt. eigenvalues --    0.10324   0.10359   0.10542   0.16751   0.24852

 Mulliken charges and spin densities:
               1          2
     1  Fe   0.357771   2.994099
     2  H   -0.357771   0.005901
 Sum of Mulliken charges =  -0.00000   3.00000

 Dipole moment (field-independent basis, Debye):
    X=              0.0000    Y=              0.0000    Z=              3.3826  Tot=              3.3826
 Quadrupole moment (field-independent basis, Debye-Ang):
   XX=            -16.2926   YY=            -16.2926   ZZ=            -15.9992
   XY=              0.0000   XZ=              0.0000   YZ=              0.0000

 \\#P ROCCSD(T)=(maxcyc=100, Full)/Gen SCF=(maxcycle=400, symm) Pseudo=
 040564\CCSD(T)=-124.3333028\RMSD=5.543e-09\PG=C*V [C*(H1Fe1)]\\@
 Normal termination of Gaussian 16 at Mon Feb 12 21:39:00 2018.
