 Gaussian 16, Revision A.03,
 Gaussian 16:  ES64L-G16RevA.03 25-Dec-2016

 ----------------------------------------------------------------------
 #P ROCCSD(T)=(maxcyc=100, Full)/Gen SCF=(maxcycle=400, symm) Pseudo=Re
 ad Integral(NoXCTest) Pop=Regular MaxDisk=500GB Guess=Permute IOp(5/15
 =2)
 ----------------------------------------------------------------------

 ---
 FeH
 ---
 Symbolic Z-matrix:
 Charge =  0 Multiplicity = 4

                         Standard orientation:
 ---------------------------------------------------------------------
 Center     Atomic      Atomic             Coordinates (Angstroms)
 Number     Number       Type             X           Y           Z
 ---------------------------------------------------------------------
      1         26           0        0.000000    0.000000    0.048148
      2          1           0        0.000000    0.000000   -1.251852
 ---------------------------------------------------------------------

 SCF Done:  E(ROHF) =  -123.562156112     A.U. after   32 cycles
 E2 =    -0.8265775244D+00 EUMP2 =    -0.12438873363674D+03
 CCSD(T)
 CCSD(T)= -0.12438036420D+03

 Unable to determine electronic state:  partially filled degenerate orbitals.
 Alpha  occ. eigenvalues --   -4.32708  -2.81271  -2.79587  -2.79587  -0.53875
 Alpha  occ. eigenvalues --   -0.53875  -0.51927  -0.51495  -0.47011  -0.31026
 Alpha virt. eigenvalues --    0.00206   0.02202   0.02202   0.02402   0.03842
 Alpha virt. eigenvalues --    0.05876   0.06272   0.06281   0.06287   0.06287
 Alpha virt. eigenvalues --    0.07289   0.07289   0.08229   0.13032   0.17301

 Mulliken charges and spin densities:
               1          2
     1  Fe   0.295679   2.991821
     2  H   -0.295679   0.008179
 Sum of Mulliken charges =  -0.00000   3.00000

 Dipole moment (field-independent basis, Debye):
    X=              0.0000    Y=              0.0000    Z=              3.3793  Tot=              3.3793
 Quadrupole moment (field-independent basis, Debye-Ang):
   XX=            -16.2817   YY=            -16.2816   ZZ=            -16.0050
   XY=              0.0000   XZ=              0.0000   YZ=              0.0000

 \\#P ROCCSD(T)=(maxcyc=100, Full)/Gen SCF=(maxcycle=400, symm) Pseudo=
 492481\CCSD(T)=-124.3803642\RMSD=7.626e-09\PG=C*V [C*(H1Fe1)]\\@
 Normal termination of Gaussian 16 at Mon Feb 12 23:52:29 2018.
