 Gaussian 16, Revision A.03,
 Gaussian 16:  ES64L-G16RevA.03 25-Dec-2016

 ----------------------------------------------------------------------
 #P ROCCSD(T)=(maxcyc=100, Full)/Gen SCF=(maxcycle=400, symm) Pseudo=Re
 ad Integral(NoXCTest) Pop=Regular MaxDisk=500GB Guess=Permute IOp(5/15
 =2)
 ----------------------------------------------------------------------

 ---
 FeH
 ---
 Symbolic Z-matrix:
 Charge =  0 Multiplicity = 4

                         Standard orientation:
 ---------------------------------------------------------------------
 Center     Atomic      Atomic             Coordinates (Angstroms)
 Number     Number       Type             X           Y           Z
 ---------------------------------------------------------------------
      1         26           0        0.000000    0.000000    0.048148
      2          1           0        0.000000    0.000000   -1.251852
 ---------------------------------------------------------------------

 SCF Done:  E(ROHF) =  -123.561979397     A.U. after   35 cycles
 E2 =    -0.8123471679D+00 EUMP2 =    -0.12437432656501D+03
 CCSD(T)
 CCSD(T)= -0.12436795804D+03

 Unable to determine electronic state:  partially filled degenerate orbitals.
 Alpha  occ. eigenvalues --   -4.32710  -2.81275  -2.79591  -2.79591  -0.53878
 Alpha  occ. eigenvalues --   -0.53878  -0.51931  -0.51493  -0.47009  -0.31026
 Alpha virt. eigenvalues --    0.00257   0.02267   0.02267   0.02684   0.04470
 Alpha virt. eigenvalues --    0.06249   0.06825   0.06825   0.06848   0.06860
 Alpha virt. eigenvalues --    0.07621   0.07621   0.09380   0.17158   0.17978

 Mulliken charges and spin densities:
               1          2
     1  Fe   0.297754   2.992925
     2  H   -0.297754   0.007075
 Sum of Mulliken charges =   0.00000   3.00000

 Dipole moment (field-independent basis, Debye):
    X=              0.0000    Y=              0.0000    Z=              3.3793  Tot=              3.3793
 Quadrupole moment (field-independent basis, Debye-Ang):
   XX=            -16.2834   YY=            -16.2834   ZZ=            -16.0036
   XY=              0.0000   XZ=              0.0000   YZ=              0.0000

 \\#P ROCCSD(T)=(maxcyc=100, Full)/Gen SCF=(maxcycle=400, symm) Pseudo=
 3373289\CCSD(T)=-124.367958\RMSD=8.842e-09\PG=C*V [C*(H1Fe1)]\\@
 Normal termination of Gaussian 16 at Mon Feb 12 22:15:49 2018.
