 Gaussian 16, Revision A.03,
 Gaussian 16:  ES64L-G16RevA.03 25-Dec-2016

 ----------------------------------------------------------------------
 #P ROCCSD(T)=(MaxCyc=150, Full)/Gen SCF=(maxcycle=400, vshift=200) Pse
 udo=Read Integral(NoXCTest) Pop=Regular MaxDisk=500GB Guess=Read
 ----------------------------------------------------------------------

 ---
 NiO
 ---
 Symbolic Z-matrix:
 Charge =  0 Multiplicity = 3

                         Standard orientation:
 ---------------------------------------------------------------------
 Center     Atomic      Atomic             Coordinates (Angstroms)
 Number     Number       Type             X           Y           Z
 ---------------------------------------------------------------------
      1         28           0        0.000000    0.000000    0.400000
      2          8           0        0.000000    0.000000   -1.400000
 ---------------------------------------------------------------------

 SCF Done:  E(ROHF) =  -184.043544331     A.U. after   26 cycles
 E2 =    -0.1146590803D+01 EUMP2 =    -0.18519013513444D+03
 CCSD(T)
 CCSD(T)= -0.18522518005D+03

 The electronic state is 3-SG.
 Alpha  occ. eigenvalues --   -5.20749  -3.52324  -3.44081  -3.44081  -1.14684
 Alpha  occ. eigenvalues --   -0.81500  -0.81500  -0.75885  -0.72820  -0.72820
 Alpha  occ. eigenvalues --   -0.38822  -0.38822  -0.35674
 Alpha virt. eigenvalues --   -0.05621   0.02049   0.02049   0.02102   0.04267
 Alpha virt. eigenvalues --    0.07627   0.07627   0.10627   0.11984   0.11984
 Alpha virt. eigenvalues --    0.13125   0.13125   0.15049   0.16018   0.26007

 Mulliken charges and spin densities:
               1          2
     1  Ni   0.985479   1.953706
     2  O   -0.985479   0.046294
 Sum of Mulliken charges =  -0.00000   2.00000

 Dipole moment (field-independent basis, Debye):
    X=              0.0000    Y=              0.0000    Z=              7.9624  Tot=              7.9624
 Quadrupole moment (field-independent basis, Debye-Ang):
   XX=            -18.8747   YY=            -18.8747   ZZ=            -22.4024
   XY=              0.0000   XZ=              0.0000   YZ=              0.0000

 \\#P ROCCSD(T)=(MaxCyc=150, Full)/Gen SCF=(maxcycle=400, vshift=200) P
 PMP2-0=-185.1901351\MP4SDQ=-185.1599807\CCSD=-185.1572957\CCSD(T)=-185
 Normal termination of Gaussian 16 at Fri May 11 03:34:36 2018.
