 Gaussian 16, Revision A.03,
 Gaussian 16:  ES64L-G16RevA.03 25-Dec-2016

 ----------------------------------------------------------------------
 #P ROCCSD(T)=(MaxCyc=150, Full)/Gen SCF=(maxcycle=400, vshift=200) Pse
 udo=Read Integral(NoXCTest) Pop=Regular MaxDisk=500GB Guess=Read
 ----------------------------------------------------------------------

 ---
 NiO
 ---
 Symbolic Z-matrix:
 Charge =  0 Multiplicity = 3

                         Standard orientation:
 ---------------------------------------------------------------------
 Center     Atomic      Atomic             Coordinates (Angstroms)
 Number     Number       Type             X           Y           Z
 ---------------------------------------------------------------------
      1         28           0        0.000000    0.000000    0.400000
      2          8           0        0.000000    0.000000   -1.400000
 ---------------------------------------------------------------------

 SCF Done:  E(ROHF) =  -184.047175744     A.U. after   21 cycles
 E2 =    -0.1203497336D+01 EUMP2 =    -0.18525067307936D+03
 CCSD(T)
 CCSD(T)= -0.18528408116D+03

 The electronic state is 3-SG.
 Alpha  occ. eigenvalues --   -5.20740  -3.52301  -3.44063  -3.44063  -1.14649
 Alpha  occ. eigenvalues --   -0.81494  -0.81494  -0.75878  -0.72817  -0.72817
 Alpha  occ. eigenvalues --   -0.38839  -0.38839  -0.35657
 Alpha virt. eigenvalues --   -0.05606   0.01721   0.01721   0.01849   0.03859
 Alpha virt. eigenvalues --    0.06615   0.06615   0.07630   0.07925   0.07925
 Alpha virt. eigenvalues --    0.08834   0.08834   0.12438   0.14898   0.21611

 Mulliken charges and spin densities:
               1          2
     1  Ni   0.939133   1.953717
     2  O   -0.939133   0.046283
 Sum of Mulliken charges =  -0.00000   2.00000

 Dipole moment (field-independent basis, Debye):
    X=              0.0000    Y=              0.0000    Z=              7.9448  Tot=              7.9448
 Quadrupole moment (field-independent basis, Debye-Ang):
   XX=            -18.8658   YY=            -18.8658   ZZ=            -22.3873
   XY=              0.0000   XZ=              0.0000   YZ=              0.0000

 \\#P ROCCSD(T)=(MaxCyc=150, Full)/Gen SCF=(maxcycle=400, vshift=200) P
 MP2-0=-185.2506731\MP4SDQ=-185.2146828\CCSD=-185.2132372\CCSD(T)=-185.
 Normal termination of Gaussian 16 at Fri May 11 04:43:35 2018.
