 Gaussian 16, Revision A.03,
 Gaussian 16:  ES64L-G16RevA.03 25-Dec-2016

 ----------------------------------------------------------------------
 #P ROCCSD(T)=(MaxCyc=150, Full)/Gen SCF=(maxcycle=400) Pseudo=Read Int
 egral(NoXCTest) Pop=Regular MaxDisk=500GB Guess=Read IOp(5/15=2)
 ----------------------------------------------------------------------

 ---
 NiO
 ---
 Symbolic Z-matrix:
 Charge =  0 Multiplicity = 3

                         Standard orientation:
 ---------------------------------------------------------------------
 Center     Atomic      Atomic             Coordinates (Angstroms)
 Number     Number       Type             X           Y           Z
 ---------------------------------------------------------------------
      1         28           0        0.000000    0.000000    0.400000
      2          8           0        0.000000    0.000000   -1.400000
 ---------------------------------------------------------------------

 SCF Done:  E(ROHF) =  -184.711782608     A.U. after   19 cycles
 E2 =    -0.1214616989D+01 EUMP2 =    -0.18592639959635D+03
 CCSD(T)
 CCSD(T)= -0.18595868999D+03

 The electronic state is 3-SG.
 Alpha  occ. eigenvalues --   -5.24268  -3.52884  -3.44634  -3.44634  -1.14574
 Alpha  occ. eigenvalues --   -0.81572  -0.81572  -0.75970  -0.72885  -0.72885
 Alpha  occ. eigenvalues --   -0.38734  -0.38734  -0.35714
 Alpha virt. eigenvalues --   -0.05713   0.01706   0.01706   0.01822   0.03860
 Alpha virt. eigenvalues --    0.06587   0.06587   0.07625   0.07923   0.07923
 Alpha virt. eigenvalues --    0.08824   0.08824   0.12434   0.14860   0.21514

 Mulliken charges and spin densities:
               1          2
     1  Ni   0.940541   1.953724
     2  O   -0.940541   0.046276
 Sum of Mulliken charges =  -0.00000   2.00000

 Dipole moment (field-independent basis, Debye):
    X=              0.0000    Y=              0.0000    Z=              7.9920  Tot=              7.9920
 Quadrupole moment (field-independent basis, Debye-Ang):
   XX=            -18.8131   YY=            -18.8131   ZZ=            -22.3307
   XY=              0.0000   XZ=              0.0000   YZ=              0.0000

 \\#P ROCCSD(T)=(MaxCyc=150, Full)/Gen SCF=(maxcycle=400) Pseudo=Read I
 MP2-0=-185.9263996\MP4SDQ=-185.889771\CCSD=-185.8874487\CCSD(T)=-185.9
 Normal termination of Gaussian 16 at Mon Mar 26 20:47:37 2018.
