 Gaussian 16, Revision A.03,
 Gaussian 16:  ES64L-G16RevA.03 25-Dec-2016

 ----------------------------------------------------------------------
 #P ROCCSD(T)=(MaxCyc=150, Full)/Gen SCF=(maxcycle=400) Pseudo=Read Int
 egral(NoXCTest) Pop=Regular MaxDisk=500GB Guess=Read IOp(5/15=2)
 ----------------------------------------------------------------------

 ---
 NiO
 ---
 Symbolic Z-matrix:
 Charge =  0 Multiplicity = 3

                         Standard orientation:
 ---------------------------------------------------------------------
 Center     Atomic      Atomic             Coordinates (Angstroms)
 Number     Number       Type             X           Y           Z
 ---------------------------------------------------------------------
      1         28           0        0.000000    0.000000    0.400000
      2          8           0        0.000000    0.000000   -1.400000
 ---------------------------------------------------------------------

 SCF Done:  E(ROHF) =  -184.708084128     A.U. after   22 cycles
 E2 =    -0.1157758162D+01 EUMP2 =    -0.18586584229005D+03
 CCSD(T)
 CCSD(T)= -0.18589983205D+03

 The electronic state is 3-SG.
 Alpha  occ. eigenvalues --   -5.24274  -3.52913  -3.44657  -3.44657  -1.14609
 Alpha  occ. eigenvalues --   -0.81579  -0.81579  -0.75978  -0.72888  -0.72888
 Alpha  occ. eigenvalues --   -0.38718  -0.38718  -0.35731
 Alpha virt. eigenvalues --   -0.05728   0.02034   0.02034   0.02074   0.04271
 Alpha virt. eigenvalues --    0.07587   0.07587   0.10612   0.11980   0.11980
 Alpha virt. eigenvalues --    0.13115   0.13115   0.15040   0.15990   0.26027

 Mulliken charges and spin densities:
               1          2
     1  Ni   0.987769   1.953691
     2  O   -0.987769   0.046309
 Sum of Mulliken charges =  -0.00000   2.00000

 Dipole moment (field-independent basis, Debye):
    X=              0.0000    Y=              0.0000    Z=              8.0097  Tot=              8.0097
 Quadrupole moment (field-independent basis, Debye-Ang):
   XX=            -18.8221   YY=            -18.8221   ZZ=            -22.3461
   XY=              0.0000   XZ=              0.0000   YZ=              0.0000

 \\#P ROCCSD(T)=(MaxCyc=150, Full)/Gen SCF=(maxcycle=400) Pseudo=Read I
 PMP2-0=-185.8658423\MP4SDQ=-185.8351427\CCSD=-185.8315599\CCSD(T)=-185
 Normal termination of Gaussian 16 at Mon Mar 26 18:20:24 2018.
