 Gaussian 16, Revision A.03,
 Gaussian 16:  ES64L-G16RevA.03 25-Dec-2016

 ----------------------------------------------------------------------
 #P ROCCSD(T)=(maxcyc=150, Full, SaveAmplitudes, ReadAmplitudes)/Gen 5d
  7f SCF=(maxcycles=300) Integral(NoXCTest) MaxDisk=500GB Pop=Regular P
 seudo=Read Guess=Read IOp(5/15=2)
 ----------------------------------------------------------------------

 ---
 MnO
 ---
 Symbolic Z-matrix:
 Charge =  0 Multiplicity = 6

                         Standard orientation:
 ---------------------------------------------------------------------
 Center     Atomic      Atomic             Coordinates (Angstroms)
 Number     Number       Type             X           Y           Z
 ---------------------------------------------------------------------
      1         25           0        0.000000    0.000000    0.339394
      2          8           0        0.000000    0.000000   -1.060606
 ---------------------------------------------------------------------

 SCF Done:  E(ROHF) =  -119.068284072     A.U. after   33 cycles
 E2 =    -0.9263380501D+00 EUMP2 =    -0.11999462212246D+03
 CCSD(T)
 CCSD(T)= -0.12000576382D+03

 The electronic state is 6-SG.
 Alpha  occ. eigenvalues --   -4.23079  -2.78430  -2.78430  -2.76283  -1.23576
 Alpha  occ. eigenvalues --   -0.70649  -0.70649  -0.63316  -0.63316  -0.55859
 Alpha  occ. eigenvalues --   -0.41127  -0.41127  -0.31683
 Alpha virt. eigenvalues --    0.01205   0.02180   0.02180   0.03333   0.05157
 Alpha virt. eigenvalues --    0.07092   0.07092   0.08700   0.08700   0.09362
 Alpha virt. eigenvalues --    0.09362   0.09502   0.12571   0.15490   0.23669

 Mulliken charges and spin densities:
               1          2
     1  Mn   0.946820   4.797233
     2  O   -0.946820   0.202767
 Sum of Mulliken charges =  -0.00000   5.00000

 Dipole moment (field-independent basis, Debye):
    X=              0.0000    Y=              0.0000    Z=              4.2075  Tot=              4.2075
 Quadrupole moment (field-independent basis, Debye-Ang):
   XX=            -19.7023   YY=            -19.7023   ZZ=            -23.2426
   XY=              0.0000   XZ=              0.0000   YZ=              0.0000

 \\#P ROCCSD(T)=(maxcyc=150, Full, SaveAmplitudes, ReadAmplitudes)/Gen
 .9814974\CCSD=-119.9644855\CCSD(T)=-120.0057638\RMSD=7.204e-09\PG=C*V
 Normal termination of Gaussian 16 at Tue Mar 13 14:22:08 2018.
