 Gaussian 16, Revision A.03,
 Gaussian 16:  ES64L-G16RevA.03 25-Dec-2016

 ----------------------------------------------------------------------
 #P ROCCSD(T)=(maxcyc=150, Full)/Gen 5d 7f SCF=(maxcycles=300, NoVarAcc
 , VShift=300) MaxDisk=100GB Pop=Regular Pseudo=Read IOp(5/15=2)
 ----------------------------------------------------------------------

 --
 Cr
 --
 Symbolic Z-matrix:
 Charge =  0 Multiplicity = 7

                         Standard orientation:
 ---------------------------------------------------------------------
 Center     Atomic      Atomic             Coordinates (Angstroms)
 Number     Number       Type             X           Y           Z
 ---------------------------------------------------------------------
      1         24           0        0.000000    0.000000    0.000000
 ---------------------------------------------------------------------

 SCF Done:  E(ROHF) =  -86.3369226161     A.U. after   43 cycles
 E2 =    -0.5798961568D+00 EUMP2 =    -0.86916818772854D+02
 CCSD(T)
 CCSD(T)= -0.86926299049D+02

 The electronic state is 7-A1G.
 Alpha  occ. eigenvalues --   -3.51794  -2.28249  -2.28249  -2.28249  -0.36580
 Alpha  occ. eigenvalues --   -0.36580  -0.36580  -0.36580  -0.36580  -0.22606
 Alpha virt. eigenvalues --    0.01661   0.01661   0.01661   0.02263   0.05110
 Alpha virt. eigenvalues --    0.05110   0.05110   0.05110   0.05110   0.05648
 Alpha virt. eigenvalues --    0.05648   0.05648   0.11298   0.16238   0.16238

 Mulliken charges and spin densities:
               1          2
     1  Cr  -0.000000   6.000000
 Sum of Mulliken charges =  -0.00000   6.00000

 Dipole moment (field-independent basis, Debye):
    X=              0.0000    Y=              0.0000    Z=              0.0000  Tot=              0.0000
 Quadrupole moment (field-independent basis, Debye-Ang):
   XX=            -16.3604   YY=            -16.3604   ZZ=            -16.3604
   XY=              0.0000   XZ=              0.0000   YZ=             -0.0000

 1\1\GINC-C401-103\SP\ROCCSD(T)-Full\Gen\Cr1(7)\AANNABE\07-Mar-2018\0\\
 #P ROCCSD(T)=(maxcyc=150, Full)/Gen 5d 7f SCF=(maxcycles=300, NoVarAcc
 , VShift=300) MaxDisk=100GB Pop=Regular Pseudo=Read IOp(5/15=2)\\Cr\\0
 ,7\Cr,0,0.,0.,0.\\Version=ES64L-G16RevA.03\State=7-A1G\HF=-86.3369226\
 MP2=-86.9168188\MP3=-86.9060352\PUHF=-86.3369226\PMP2-0=-86.9168188\MP
 4SDQ=-86.9090291\CCSD=-86.9080179\CCSD(T)=-86.926299\RMSD=4.825e-09\PG
 =OH [O(Cr1)]\\@

 Normal termination of Gaussian 16 at Wed Mar  7 18:49:30 2018.
