 Gaussian 16, Revision A.03,
 Gaussian 16:  ES64L-G16RevA.03 25-Dec-2016

 ----------------------------------------------------------------------
 #P ROCCSD(T)=(maxcyc=150, Full, SaveAmplitudes, ReadAmplitudes)/Gen 5d
  7f SCF=(maxcycles=300) Integral(NoXCTest, DKHSO) MaxDisk=500GB Pop=Re
 gular Guess=Read
 ----------------------------------------------------------------------

 ---
 ScO
 ---
 Symbolic Z-matrix:
 Charge =  0 Multiplicity = 2

                         Standard orientation:
 ---------------------------------------------------------------------
 Center     Atomic      Atomic             Coordinates (Angstroms)
 Number     Number       Type             X           Y           Z
 ---------------------------------------------------------------------
      1         21           0        0.000000    0.000000    0.496552
      2          8           0        0.000000    0.000000   -1.303448
 ---------------------------------------------------------------------

 SCF Done:  E(ROHF) =  -838.262613073     A.U. after   17 cycles
 E2 =    -0.1130276928D+01 EUMP2 =    -0.83939289000066D+03
 CCSD(T)
 CCSD(T)= -0.83941537757D+03

 The electronic state is 2-SG.
 Alpha  occ. eigenvalues -- -166.91213 -20.47642 -19.36409 -15.78623 -15.78623
 Alpha  occ. eigenvalues --  -15.78486  -2.67747  -1.66867  -1.65802  -1.65802
 Alpha  occ. eigenvalues --   -1.10585  -0.41491  -0.38486  -0.38486  -0.26444
 Alpha virt. eigenvalues --   -0.00440  -0.00440   0.01078   0.01945   0.02660
 Alpha virt. eigenvalues --    0.02660   0.02788   0.02788   0.03226   0.03226
 Alpha virt. eigenvalues --    0.03606   0.04113   0.06162   0.06162   0.09112

 Mulliken charges and spin densities:
               1          2
     1  Sc   1.256367   0.984865
     2  O   -1.256367   0.015135
 Sum of Mulliken charges =  -0.00000   1.00000

 Dipole moment (field-independent basis, Debye):
    X=              0.0000    Y=              0.0000    Z=              5.7883  Tot=              5.7883
 Quadrupole moment (field-independent basis, Debye-Ang):
   XX=            -22.3756   YY=            -22.3756   ZZ=            -33.8985
   XY=              0.0000   XZ=              0.0000   YZ=              0.0000

 \\#P ROCCSD(T)=(maxcyc=150, Full, SaveAmplitudes, ReadAmplitudes)/Gen
 31\PMP2-0=-839.39289\CCSD=-839.369137\CCSD(T)=-839.4153776\RMSD=2.076e
 Normal termination of Gaussian 16 at Tue Feb 20 23:27:26 2018.
