 Gaussian 16, Revision A.03,
 Gaussian 16:  ES64L-G16RevA.03 25-Dec-2016

 ----------------------------------------------------------------------
 #P ROCCSD(T)=(maxcyc=150, Full, SaveAmplitudes, ReadAmplitudes)/Gen 5d
  7f SCF=(maxcycles=300, VShift=400) Integral(NoXCTest) MaxDisk=500GB P
 op=Full Pseudo=Read Guess=Read IOp(5/15=2)
 ----------------------------------------------------------------------

 ---
 ScH
 ---
 Symbolic Z-matrix:
 Charge =  0 Multiplicity = 1

                         Standard orientation:
 ---------------------------------------------------------------------
 Center     Atomic      Atomic             Coordinates (Angstroms)
 Number     Number       Type             X           Y           Z
 ---------------------------------------------------------------------
      1         21           0        0.000000    0.000000    0.081818
      2          1           0        0.000000    0.000000   -1.718182
 ---------------------------------------------------------------------

 SCF Done:  E(ROHF) =  -46.6756556637     A.U. after   25 cycles
 E2 =    -0.4066550308D+00 EUMP2 =    -0.47082310694503D+02
 CCSD(T)
 CCSD(T)= -0.47127941895D+02

 The electronic state is 1-SG.
 Alpha  occ. eigenvalues --   -2.68506  -1.67024  -1.67024  -1.66992  -0.40488
 Alpha  occ. eigenvalues --   -0.23226
 Alpha virt. eigenvalues --    0.01137   0.01137   0.01542   0.02209   0.03554
 Alpha virt. eigenvalues --    0.03835   0.03835   0.03925   0.03925   0.04512
 Alpha virt. eigenvalues --    0.04512   0.04713   0.08257   0.08257   0.09074

 Mulliken charges and spin densities:
               1          2
     1  Sc   0.351721   0.000000
     2  H   -0.351721   0.000000
 Sum of Mulliken charges =  -0.00000   0.00000

 Dipole moment (field-independent basis, Debye):
    X=              0.0000    Y=              0.0000    Z=              1.4957  Tot=              1.4957
 Quadrupole moment (field-independent basis, Debye-Ang):
   XX=            -23.0699   YY=            -23.0699   ZZ=            -26.8245
   XY=              0.0000   XZ=              0.0000   YZ=              0.0000

 P ROCCSD(T)=(maxcyc=150, Full, SaveAmplitudes, ReadAmplitudes)/Gen 5d
 .1097534\CCSD=-47.1095546\CCSD(T)=-47.1279419\RMSD=7.104e-09\PG=C*V [C
 Normal termination of Gaussian 16 at Thu Apr 19 07:44:15 2018.
