 Gaussian 16, Revision A.03,
 Gaussian 16:  ES64L-G16RevA.03 25-Dec-2016

 ----------------------------------------------------------------------
 #P ROCCSD(T)=(maxcyc=150, Full)/Gen 5d 7f SCF=(maxcycles=300) Integral
 (NoXCTest) MaxDisk=500GB Pop=Regular Pseudo=Read
 ----------------------------------------------------------------------

 ---
 MnH
 ---
 Symbolic Z-matrix:
 Charge =  0 Multiplicity = 7

                         Standard orientation:
 ---------------------------------------------------------------------
 Center     Atomic      Atomic             Coordinates (Angstroms)
 Number     Number       Type             X           Y           Z
 ---------------------------------------------------------------------
      1         25           0        0.000000    0.000000    0.038462
      2          1           0        0.000000    0.000000   -0.961538
 ---------------------------------------------------------------------

 SCF Done:  E(ROHF) =  -103.770191044     A.U. after   29 cycles
 E2 =    -0.6176301806D+00 EUMP2 =    -0.10438782122489D+03
 CCSD(T)
 CCSD(T)= -0.10440047447D+03

 The electronic state is 7-SG.
 Alpha  occ. eigenvalues --   -4.15591  -2.81747  -2.79345  -2.79345  -0.71582
 Alpha  occ. eigenvalues --   -0.64127  -0.64127  -0.62910  -0.62910  -0.39179
 Alpha  occ. eigenvalues --   -0.21480
 Alpha virt. eigenvalues --    0.01193   0.01193   0.01920   0.03496   0.05647
 Alpha virt. eigenvalues --    0.05647   0.08434   0.08474   0.08474   0.08770
 Alpha virt. eigenvalues --    0.08770   0.08860   0.14335   0.22297   0.22297

 Mulliken charges and spin densities:
               1          2
     1  Mn   0.564914   5.919041
     2  H   -0.564914   0.080959
 Sum of Mulliken charges =  -0.00000   6.00000

 Dipole moment (field-independent basis, Debye):
    X=              0.0000    Y=              0.0000    Z=             -1.2769  Tot=              1.2769
 Quadrupole moment (field-independent basis, Debye-Ang):
   XX=            -16.1997   YY=            -16.1997   ZZ=            -25.8058
   XY=              0.0000   XZ=              0.0000   YZ=              0.0000

 \\#P ROCCSD(T)=(maxcyc=150, Full)/Gen 5d 7f SCF=(maxcycles=300) Integr
 \MP4SDQ=-104.3828911\CCSD=-104.3824373\CCSD(T)=-104.4004745\RMSD=9.413
 Normal termination of Gaussian 16 at Mon Feb 12 15:59:23 2018.
