 Gaussian 16, Revision A.03,
 Gaussian 16:  ES64L-G16RevA.03 25-Dec-2016

 ----------------------------------------------------------------------
 #P ROCCSD(T)=(maxcyc=150, Full)/Gen 5d 7f SCF=(maxcycles=300, NoVarAcc
 , VShift=200) MaxDisk=100GB Pop=Regular Pseudo=Read Guess=Read IOp(5/1
 5=2)
 ----------------------------------------------------------------------

 --
 Mn
 --
 Symbolic Z-matrix:
 Charge =  0 Multiplicity = 6

                         Standard orientation:
 ---------------------------------------------------------------------
 Center     Atomic      Atomic             Coordinates (Angstroms)
 Number     Number       Type             X           Y           Z
 ---------------------------------------------------------------------
      1         25           0        0.000000    0.000000    0.000000
 ---------------------------------------------------------------------

 SCF Done:  E(ROHF) =  -103.669749581     A.U. after   21 cycles
 E2 =    -0.6061642000D+00 EUMP2 =    -0.10427591378142D+03
 CCSD(T)
 CCSD(T)= -0.10429459484D+03

 The electronic state is 6-A1G.
 Alpha  occ. eigenvalues --   -4.13779  -2.81046  -2.81046  -2.81046  -0.62965
 Alpha  occ. eigenvalues --   -0.62965  -0.62965  -0.62965  -0.62965  -0.26748
 Alpha virt. eigenvalues --    0.01691   0.01691   0.01691   0.02126   0.05577
 Alpha virt. eigenvalues --    0.05577   0.05577   0.05596   0.05596   0.05596
 Alpha virt. eigenvalues --    0.05596   0.05596   0.10440   0.17428   0.17428

 Mulliken charges and spin densities:
               1          2
     1  Mn   0.000000   5.000000
 Sum of Mulliken charges =   0.00000   5.00000

 Dipole moment (field-independent basis, Debye):
    X=              0.0000    Y=              0.0000    Z=              0.0000  Tot=              0.0000
 Quadrupole moment (field-independent basis, Debye-Ang):
   XX=            -18.8549   YY=            -18.8549   ZZ=            -18.8549
   XY=              0.0000   XZ=             -0.0000   YZ=             -0.0000

 1\1\GINC-C506-021\SP\ROCCSD(T)-Full\Gen\Mn1(6)\AANNABE\30-Mar-2018\0\\
 #P ROCCSD(T)=(maxcyc=150, Full)/Gen 5d 7f SCF=(maxcycles=300, NoVarAcc
 , VShift=200) MaxDisk=100GB Pop=Regular Pseudo=Read Guess=Read IOp(5/1
 5=2)\\Mn\\0,6\Mn,0,0.,0.,0.\\Version=ES64L-G16RevA.03\State=6-A1G\HF=-
 103.6697496\MP2=-104.2759138\MP3=-104.2735257\PUHF=-103.6697496\PMP2-0
 =-104.2759138\MP4SDQ=-104.2756473\CCSD=-104.2759213\CCSD(T)=-104.29459
 48\RMSD=3.424e-09\PG=OH [O(Mn1)]\\@

 Normal termination of Gaussian 16 at Fri Mar 30 11:17:05 2018.
