 Gaussian 16, Revision A.03,
 Gaussian 16:  ES64L-G16RevA.03 25-Dec-2016

 ----------------------------------------------------------------------
 #P ROCCSD(T)=(maxcyc=150, Full, SaveAmplitudes, ReadAmplitudes)/Gen 5d
  7f SCF=(maxcycles=300) Integral(NoXCTest) MaxDisk=500GB Pop=Regular P
 seudo=Read Guess=Read
 ----------------------------------------------------------------------

 ---
 ScO
 ---
 Symbolic Z-matrix:
 Charge =  0 Multiplicity = 2

                         Standard orientation:
 ---------------------------------------------------------------------
 Center     Atomic      Atomic             Coordinates (Angstroms)
 Number     Number       Type             X           Y           Z
 ---------------------------------------------------------------------
      1         21           0        0.000000    0.000000    0.496552
      2          8           0        0.000000    0.000000   -1.303448
 ---------------------------------------------------------------------

 SCF Done:  E(ROHF) =  -61.9505990009     A.U. after   17 cycles
 E2 =    -0.7145089292D+00 EUMP2 =    -0.62665107930034D+02
 CCSD(T)
 CCSD(T)= -0.62693979330D+02

 The electronic state is 2-SG.
 Alpha  occ. eigenvalues --   -2.69200  -1.67430  -1.66308  -1.66308  -1.11964
 Alpha  occ. eigenvalues --   -0.41527  -0.38588  -0.38588  -0.26422
 Alpha virt. eigenvalues --   -0.00444  -0.00444   0.01072   0.01947   0.02660
 Alpha virt. eigenvalues --    0.02660   0.02783   0.02783   0.03224   0.03224
 Alpha virt. eigenvalues --    0.03602   0.04084   0.06105   0.06105   0.09113

 Mulliken charges and spin densities:
               1          2
     1  Sc   1.253793   0.985136
     2  O   -1.253793   0.014864
 Sum of Mulliken charges =  -0.00000   1.00000

 Dipole moment (field-independent basis, Debye):
    X=              0.0000    Y=              0.0000    Z=              5.7706  Tot=              5.7706
 Quadrupole moment (field-independent basis, Debye-Ang):
   XX=            -21.8886   YY=            -21.8886   ZZ=            -33.3391
   XY=              0.0000   XZ=              0.0000   YZ=              0.0000

 \\#P ROCCSD(T)=(maxcyc=150, Full, SaveAmplitudes, ReadAmplitudes)/Gen
 0599\PMP2-0=-62.6651079\CCSD=-62.6483958\CCSD(T)=-62.6939793\RMSD=3.07
 Normal termination of Gaussian 16 at Mon Mar  5 19:38:51 2018.
