 Gaussian 16, Revision A.03,
 Gaussian 16:  ES64L-G16RevA.03 25-Dec-2016

 ----------------------------------------------------------------------
 #P ROCCSD(T)=(maxcyc=150, Full)/Gen 5d 7f SCF=(maxcycles=300) Integral
 (NoXCTest, DKHSO) MaxDisk=500GB Pop=Regular IOp(5/15=2) Guess=Read
 ----------------------------------------------------------------------

 ---
 CrH
 ---
 Symbolic Z-matrix:
 Charge =  0 Multiplicity = 6

                         Standard orientation:
 ---------------------------------------------------------------------
 Center     Atomic      Atomic             Coordinates (Angstroms)
 Number     Number       Type             X           Y           Z
 ---------------------------------------------------------------------
      1         24           0        0.000000    0.000000    0.080000
      2          1           0        0.000000    0.000000   -1.920000
 ---------------------------------------------------------------------

 SCF Done:  E(ROHF) =  -1050.19467550     A.U. after   26 cycles
 E2 =    -0.9022459195D+00 EUMP2 =    -0.10510969214229D+04
 CCSD(T)
 CCSD(T)= -0.10510973329D+04

 The electronic state is 6-SG.
 Alpha  occ. eigenvalues -- -222.23541 -26.82863 -22.46260 -22.46260 -22.46258
 Alpha  occ. eigenvalues --   -3.70038  -2.45482  -2.45482  -2.41136  -0.57692
 Alpha  occ. eigenvalues --   -0.57692  -0.54222  -0.54222  -0.37858  -0.26770
 Alpha virt. eigenvalues --    0.01022   0.01022   0.02228   0.02647   0.05244
 Alpha virt. eigenvalues --    0.05244   0.05414   0.07486   0.07486   0.07976
 Alpha virt. eigenvalues --    0.07976   0.09103   0.10490   0.16792   0.20478

 Mulliken charges and spin densities:
               1          2
     1  Cr   0.370558   4.977446
     2  H   -0.370558   0.022554
 Sum of Mulliken charges =  -0.00000   5.00000

 Dipole moment (field-independent basis, Debye):
    X=              0.0000    Y=              0.0000    Z=              2.9255  Tot=              2.9255
 Quadrupole moment (field-independent basis, Debye-Ang):
   XX=            -17.5541   YY=            -17.5541   ZZ=            -27.3152
   XY=              0.0000   XZ=              0.0000   YZ=              0.0000

 \\#P ROCCSD(T)=(maxcyc=150, Full)/Gen 5d 7f SCF=(maxcycles=300) Integr
 Normal termination of Gaussian 16 at Tue Feb 13 18:03:32 2018.
