 Gaussian 16, Revision A.03,
 Gaussian 16:  ES64L-G16RevA.03 25-Dec-2016

 ----------------------------------------------------------------------
 #P ROCCSD(T)=(maxcyc=150, Full, SaveAmplitudes, ReadAmplitudes)/Gen 5d
  7f SCF=(maxcycles=300) Integral(NoXCTest) MaxDisk=500GB Pop=Regular P
 seudo=Read Guess=Read
 ----------------------------------------------------------------------

 ---
 CrH
 ---
 Symbolic Z-matrix:
 Charge =  0 Multiplicity = 6

                         Standard orientation:
 ---------------------------------------------------------------------
 Center     Atomic      Atomic             Coordinates (Angstroms)
 Number     Number       Type             X           Y           Z
 ---------------------------------------------------------------------
      1         24           0        0.000000    0.000000    0.056000
      2          1           0        0.000000    0.000000   -1.344000
 ---------------------------------------------------------------------

 SCF Done:  E(ROHF) =  -86.8494709013     A.U. after   26 cycles
 E2 =    -0.5972856762D+00 EUMP2 =    -0.87446756577521D+02
 CCSD(T)
 CCSD(T)= -0.87483083806D+02

 The electronic state is 6-SG.
 Alpha  occ. eigenvalues --   -3.62938  -2.39261  -2.39261  -2.35773  -0.49975
 Alpha  occ. eigenvalues --   -0.49975  -0.46963  -0.46963  -0.44002  -0.25387
 Alpha virt. eigenvalues --    0.01459   0.01459   0.01999   0.02220   0.04639
 Alpha virt. eigenvalues --    0.05260   0.05260   0.05415   0.05415   0.05671
 Alpha virt. eigenvalues --    0.05671   0.06527   0.09526   0.12754   0.16829

 Mulliken charges and spin densities:
               1          2
     1  Cr   0.396173   4.984373
     2  H   -0.396173   0.015627
 Sum of Mulliken charges =  -0.00000   5.00000

 Dipole moment (field-independent basis, Debye):
    X=              0.0000    Y=              0.0000    Z=              1.7343  Tot=              1.7343
 Quadrupole moment (field-independent basis, Debye-Ang):
   XX=            -16.7460   YY=            -16.7460   ZZ=            -21.2002
   XY=              0.0000   XZ=              0.0000   YZ=              0.0000

 \\#P ROCCSD(T)=(maxcyc=150, Full, SaveAmplitudes, ReadAmplitudes)/Gen
 494709\PMP2-0=-87.4467566\CCSD=-87.4626343\CCSD(T)=-87.4830838\RMSD=7.
 Normal termination of Gaussian 16 at Mon Feb 26 02:16:12 2018.
