 Gaussian 16, Revision A.03,
 Gaussian 16:  ES64L-G16RevA.03 25-Dec-2016

 ----------------------------------------------------------------------
 #P ROCCSD(T)=(maxcyc=150, Full, SaveAmplitudes, ReadAmplitudes)/Gen 5d
  7f SCF=(maxcycles=300) Integral(NoXCTest) MaxDisk=500GB Pop=Regular P
 seudo=Read Guess=Read IOp(5/15=2)
 ----------------------------------------------------------------------

 ---
 ScO
 ---
 Symbolic Z-matrix:
 Charge =  0 Multiplicity = 2

                         Standard orientation:
 ---------------------------------------------------------------------
 Center     Atomic      Atomic             Coordinates (Angstroms)
 Number     Number       Type             X           Y           Z
 ---------------------------------------------------------------------
      1         21           0        0.000000    0.000000    0.496552
      2          8           0        0.000000    0.000000   -1.303448
 ---------------------------------------------------------------------

 SCF Done:  E(ROHF) =  -62.0502375071     A.U. after   17 cycles
 E2 =    -0.6852678718D+00 EUMP2 =    -0.62735505378834D+02
 CCSD(T)
 CCSD(T)= -0.62766664827D+02

 The electronic state is 2-SG.
 Alpha  occ. eigenvalues --   -2.72495  -1.67540  -1.66412  -1.66412  -1.11953
 Alpha  occ. eigenvalues --   -0.41497  -0.38501  -0.38501  -0.26557
 Alpha virt. eigenvalues --   -0.00421  -0.00421   0.01157   0.02134   0.03288
 Alpha virt. eigenvalues --    0.03288   0.03493   0.03493   0.04256   0.04256
 Alpha virt. eigenvalues --    0.04404   0.04988   0.07135   0.07135   0.10198

 Mulliken charges and spin densities:
               1          2
     1  Sc   1.233444   0.975642
     2  O   -1.233444   0.024358
 Sum of Mulliken charges =  -0.00000   1.00000

 Dipole moment (field-independent basis, Debye):
    X=              0.0000    Y=              0.0000    Z=              5.8501  Tot=              5.8501
 Quadrupole moment (field-independent basis, Debye-Ang):
   XX=            -21.8485   YY=            -21.8485   ZZ=            -33.1464
   XY=              0.0000   XZ=              0.0000   YZ=              0.0000

 \\#P ROCCSD(T)=(maxcyc=150, Full, SaveAmplitudes, ReadAmplitudes)/Gen
 8\CCSD=-62.7231932\CCSD(T)=-62.7666648\RMSD=3.589e-09\PG=C*V [C*(O1Sc1
 Normal termination of Gaussian 16 at Wed Feb 21 05:31:31 2018.
