 Gaussian 16, Revision A.03,
 Gaussian 16:  ES64L-G16RevA.03 25-Dec-2016

 ----------------------------------------------------------------------
 #P ROCCSD(T)=(maxcyc=150, Full, SaveAmplitudes, ReadAmplitudes)/Gen 5d
  7f SCF=(maxcycles=300, VShift=400) Integral(NoXCTest) MaxDisk=500GB P
 op=Full Pseudo=Read Guess=Read IOp(5/15=2)
 ----------------------------------------------------------------------

 ---
 CrO
 ---
 Symbolic Z-matrix:
 Charge =  0 Multiplicity = 5

                         Standard orientation:
 ---------------------------------------------------------------------
 Center     Atomic      Atomic             Coordinates (Angstroms)
 Number     Number       Type             X           Y           Z
 ---------------------------------------------------------------------
      1         24           0        0.000000    0.000000    0.300000
      2          8           0        0.000000    0.000000   -0.900000
 ---------------------------------------------------------------------

 SCF Done:  E(ROHF) =  -101.175518714     A.U. after   70 cycles
 E2 =    -0.8821381105D+00 EUMP2 =    -0.10205765682406D+03
 CCSD(T)
 CCSD(T)= -0.10206374798D+03

 Unable to determine electronic state:  an orbital has unidentified symmetry.
 Alpha  occ. eigenvalues --   -3.73967  -2.48686  -2.43648  -2.39936  -1.26498
 Alpha  occ. eigenvalues --   -0.75027  -0.69077  -0.65595  -0.50277  -0.50191
 Alpha  occ. eigenvalues --   -0.30007  -0.26434
 Alpha virt. eigenvalues --    0.01472   0.02447   0.02803   0.02806   0.05451
 Alpha virt. eigenvalues --    0.07042   0.07672   0.07741   0.07798   0.07801
 Alpha virt. eigenvalues --    0.09703   0.09981   0.12181   0.17896   0.20808

 Mulliken charges and spin densities:
               1          2
     1  Cr   0.828423   3.721660
     2  O   -0.828423   0.278340
 Sum of Mulliken charges =  -0.00000   4.00000

 Dipole moment (field-independent basis, Debye):
    X=              0.0000    Y=              0.0000    Z=              0.2740  Tot=              0.2740
 Quadrupole moment (field-independent basis, Debye-Ang):
   XX=            -22.9127   YY=            -20.0063   ZZ=            -22.8273
   XY=              0.0000   XZ=              0.0000   YZ=              0.0000

 \\#P ROCCSD(T)=(maxcyc=150, Full, SaveAmplitudes, ReadAmplitudes)/Gen
 392844\CCSD=-102.0248417\CCSD(T)=-102.063748\RMSD=7.902e-09\PG=C*V [C*
 Normal termination of Gaussian 16 at Thu Apr  5 21:03:59 2018.
