 Gaussian 16, Revision A.03,
 Gaussian 16:  ES64L-G16RevA.03 25-Dec-2016

 ----------------------------------------------------------------------
 #P ROCCSD(T)=(maxcyc=150, Full)/Gen 5d 7f SCF=(maxcycles=300, NoVarAcc
 , VShift=200) MaxDisk=100GB Pop=Regular Pseudo=Read Guess=Read IOp(5/1
 5=2)
 ----------------------------------------------------------------------

 --
 Mn
 --
 Symbolic Z-matrix:
 Charge =  0 Multiplicity = 6

                         Standard orientation:
 ---------------------------------------------------------------------
 Center     Atomic      Atomic             Coordinates (Angstroms)
 Number     Number       Type             X           Y           Z
 ---------------------------------------------------------------------
      1         25           0        0.000000    0.000000    0.000000
 ---------------------------------------------------------------------

 SCF Done:  E(ROHF) =  -103.699934864     A.U. after   21 cycles
 E2 =    -0.6132909485D+00 EUMP2 =    -0.10431322581250D+03
 CCSD(T)
 CCSD(T)= -0.10433106532D+03

 The electronic state is 6-A1G.
 Alpha  occ. eigenvalues --   -4.13019  -2.75773  -2.75773  -2.75773  -0.63846
 Alpha  occ. eigenvalues --   -0.63846  -0.63846  -0.63846  -0.63846  -0.26715
 Alpha virt. eigenvalues --    0.01719   0.01719   0.01719   0.02127   0.05596
 Alpha virt. eigenvalues --    0.05596   0.05596   0.05596   0.05596   0.05640
 Alpha virt. eigenvalues --    0.05640   0.05640   0.10440   0.17416   0.17416

 Mulliken charges and spin densities:
               1          2
     1  Mn  -0.000000   5.000000
 Sum of Mulliken charges =  -0.00000   5.00000

 Dipole moment (field-independent basis, Debye):
    X=              0.0000    Y=              0.0000    Z=              0.0000  Tot=              0.0000
 Quadrupole moment (field-independent basis, Debye-Ang):
   XX=            -18.7768   YY=            -18.7768   ZZ=            -18.7768
   XY=              0.0000   XZ=             -0.0000   YZ=             -0.0000

 1\1\GINC-C506-093\SP\ROCCSD(T)-Full\Gen\Mn1(6)\AANNABE\04-Apr-2018\0\\
 #P ROCCSD(T)=(maxcyc=150, Full)/Gen 5d 7f SCF=(maxcycles=300, NoVarAcc
 , VShift=200) MaxDisk=100GB Pop=Regular Pseudo=Read Guess=Read IOp(5/1
 5=2)\\Mn\\0,6\Mn,0,0.,0.,0.\\Version=ES64L-G16RevA.03\State=6-A1G\HF=-
 103.6999349\MP2=-104.3132258\MP3=-104.3094839\PUHF=-103.6999349\PMP2-0
 =-104.3132258\MP4SDQ=-104.3120002\CCSD=-104.312128\CCSD(T)=-104.331065
 3\RMSD=5.400e-09\PG=OH [O(Mn1)]\\@

 Normal termination of Gaussian 16 at Wed Apr  4 07:49:52 2018.
