 Gaussian 16, Revision A.03,
 Gaussian 16:  ES64L-G16RevA.03 25-Dec-2016

 ----------------------------------------------------------------------
 #P ROCCSD(T)=(MaxCyc=150, Full)/Gen SCF=(maxcycle=400) Pseudo=Read Int
 egral(NoXCTest) Pop=Regular MaxDisk=500GB
 ----------------------------------------------------------------------

 ---
 FeO
 ---
 Symbolic Z-matrix:
 Charge =  0 Multiplicity = 5

                         Standard orientation:
 ---------------------------------------------------------------------
 Center     Atomic      Atomic             Coordinates (Angstroms)
 Number     Number       Type             X           Y           Z
 ---------------------------------------------------------------------
      1         26           0        0.000000    0.000000    0.376471
      2          8           0        0.000000    0.000000   -1.223529
 ---------------------------------------------------------------------

 SCF Done:  E(ROHF) =  -138.806959501     A.U. after   30 cycles
 E2 =    -0.1053528158D+01 EUMP2 =    -0.13986048765883D+03
 CCSD(T)
 CCSD(T)= -0.13988700598D+03

 Unable to determine electronic state:  partially filled degenerate orbitals.
 Alpha  occ. eigenvalues --   -4.37190  -2.99979  -2.92618  -2.92618  -1.12651
 Alpha  occ. eigenvalues --   -0.68270  -0.68270  -0.64638  -0.64202  -0.59225
 Alpha  occ. eigenvalues --   -0.35727  -0.34805  -0.34805
 Alpha virt. eigenvalues --   -0.04795   0.01580   0.01580   0.01731   0.03581
 Alpha virt. eigenvalues --    0.06255   0.06255   0.06461   0.06472   0.06652
 Alpha virt. eigenvalues --    0.07954   0.07954   0.11980   0.13587   0.19156

 Mulliken charges and spin densities:
               1          2
     1  Fe   1.168402   3.857807
     2  O   -1.168402   0.142193
 Sum of Mulliken charges =  -0.00000   4.00000

 Dipole moment (field-independent basis, Debye):
    X=              0.0000    Y=              0.0000    Z=              8.7426  Tot=              8.7426
 Quadrupole moment (field-independent basis, Debye-Ang):
   XX=            -18.2775   YY=            -18.2775   ZZ=            -22.1956
   XY=              0.0000   XZ=              0.0000   YZ=              0.0000

 \\#P ROCCSD(T)=(MaxCyc=150, Full)/Gen SCF=(maxcycle=400) Pseudo=Read I
 74153\CCSD=-139.8374566\CCSD(T)=-139.887006\RMSD=7.066e-09\PG=C*V [C*(
 Normal termination of Gaussian 16 at Sat Mar 24 03:13:05 2018.
