 Gaussian 16, Revision A.03,
 Gaussian 16:  ES64L-G16RevA.03 25-Dec-2016

 ----------------------------------------------------------------------
 #P ROCCSD(T)=(MaxCyc=150, Full)/Gen SCF=(maxcycle=400) Pseudo=Read Int
 egral(NoXCTest) Pop=Regular MaxDisk=500GB Guess=Read
 ----------------------------------------------------------------------

 ---
 FeO
 ---
 Symbolic Z-matrix:
 Charge =  0 Multiplicity = 5

                         Standard orientation:
 ---------------------------------------------------------------------
 Center     Atomic      Atomic             Coordinates (Angstroms)
 Number     Number       Type             X           Y           Z
 ---------------------------------------------------------------------
      1         26           0        0.000000    0.000000    0.376471
      2          8           0        0.000000    0.000000   -1.223529
 ---------------------------------------------------------------------

 SCF Done:  E(ROHF) =  -138.804392776     A.U. after    1 cycles
 E2 =    -0.1006162502D+01 EUMP2 =    -0.13981055527832D+03
 CCSD(T)
 CCSD(T)= -0.13983966834D+03

 Unable to determine electronic state:  partially filled degenerate orbitals.
 Alpha  occ. eigenvalues --   -4.37243  -3.00006  -2.92642  -2.92642  -1.12696
 Alpha  occ. eigenvalues --   -0.68267  -0.68267  -0.64639  -0.64199  -0.59224
 Alpha  occ. eigenvalues --   -0.35739  -0.34804  -0.34804
 Alpha virt. eigenvalues --   -0.04799   0.01874   0.01874   0.02001   0.04028
 Alpha virt. eigenvalues --    0.07290   0.07290   0.08810   0.09605   0.09637
 Alpha virt. eigenvalues --    0.10749   0.10749   0.14136   0.14777   0.24857

 Mulliken charges and spin densities:
               1          2
     1  Fe   1.156751   3.847618
     2  O   -1.156751   0.152382
 Sum of Mulliken charges =  -0.00000   4.00000

 Dipole moment (field-independent basis, Debye):
    X=              0.0000    Y=              0.0000    Z=              8.7514  Tot=              8.7514
 Quadrupole moment (field-independent basis, Debye-Ang):
   XX=            -18.2783   YY=            -18.2783   ZZ=            -22.2178
   XY=              0.0000   XZ=              0.0000   YZ=              0.0000

 \\#P ROCCSD(T)=(MaxCyc=150, Full)/Gen SCF=(maxcycle=400) Pseudo=Read I
 SDQ=-139.802852\CCSD=-139.7924256\CCSD(T)=-139.8396683\RMSD=5.492e-09\
 Normal termination of Gaussian 16 at Sat Mar 24 01:02:59 2018.
