 Gaussian 16, Revision A.03,
 Gaussian 16:  ES64L-G16RevA.03 25-Dec-2016

 ----------------------------------------------------------------------
 #P ROCCSD(T)=(maxcyc=150, Full)/Gen 5d 7f SCF=(maxcycles=300) MaxDisk=
 500GB Pop=Regular Pseudo=Read Guess=Read
 ----------------------------------------------------------------------

 --
 Sc
 --
 Symbolic Z-matrix:
 Charge =  0 Multiplicity = 2

                         Standard orientation:
 ---------------------------------------------------------------------
 Center     Atomic      Atomic             Coordinates (Angstroms)
 Number     Number       Type             X           Y           Z
 ---------------------------------------------------------------------
      1         21           0        0.000000    0.000000    0.000000
 ---------------------------------------------------------------------

 SCF Done:  E(ROHF) =  -46.1218061808     A.U. after   17 cycles
 E2 =    -0.3703072763D+00 EUMP2 =    -0.46492113457024D+02
 CCSD(T)
 CCSD(T)= -0.46529255357D+02

 Unable to determine electronic state:  an orbital has unidentified symmetry.
 Alpha  occ. eigenvalues --   -2.62439  -1.63063  -1.63063  -1.59210  -0.34690
 Alpha  occ. eigenvalues --   -0.21511
 Alpha virt. eigenvalues --    0.01227   0.01325   0.01325   0.02287   0.03911
 Alpha virt. eigenvalues --    0.03919   0.03919   0.03940   0.04005   0.04768
 Alpha virt. eigenvalues --    0.04894   0.04894   0.10097   0.10430   0.10430

 Mulliken charges and spin densities:
               1          2
     1  Sc  -0.000000   1.000000
 Sum of Mulliken charges =  -0.00000   1.00000

 Dipole moment (field-independent basis, Debye):
    X=              0.0000    Y=             -0.0000    Z=             -0.0000  Tot=              0.0000
 Quadrupole moment (field-independent basis, Debye-Ang):
   XX=            -23.3740   YY=            -23.3740   ZZ=            -23.0811
   XY=              0.0000   XZ=              0.0000   YZ=             -0.0000

 1\1\GINC-C506-012\SP\ROCCSD(T)-Full\Gen\Sc1(2)\AANNABE\16-Feb-2018\0\\
 #P ROCCSD(T)=(maxcyc=150, Full)/Gen 5d 7f SCF=(maxcycles=300) MaxDisk=
 500GB Pop=Regular Pseudo=Read Guess=Read\\Sc\\0,2\Sc,0,0.,0.,0.\\Versi
 on=ES64L-G16RevA.03\HF=-46.1218062\MP2=-46.4921135\MP3=-46.5143542\PUH
 F=-46.1218062\PMP2-0=-46.4921135\MP4SDQ=-46.514376\CCSD=-46.5146291\CC
 SD(T)=-46.5292554\RMSD=7.164e-10\PG=OH [O(Sc1)]\\@

 Normal termination of Gaussian 16 at Fri Feb 16 11:02:52 2018.
