 Gaussian 16, Revision A.03,
 Gaussian 16:  ES64L-G16RevA.03 25-Dec-2016

 ----------------------------------------------------------------------
 #P ROCCSD(T)=(maxcyc=150, Full, SaveAmplitudes, ReadAmplitudes)/Gen 5d
  7f SCF=(maxcycles=300, VShift=400) Integral(NoXCTest) MaxDisk=500GB P
 op=Full Pseudo=Read Guess=Read IOp(5/15=2)
 ----------------------------------------------------------------------

 ---
 MnH
 ---
 Symbolic Z-matrix:
 Charge =  0 Multiplicity = 7

                         Standard orientation:
 ---------------------------------------------------------------------
 Center     Atomic      Atomic             Coordinates (Angstroms)
 Number     Number       Type             X           Y           Z
 ---------------------------------------------------------------------
      1         25           0        0.000000    0.000000    0.050000
      2          1           0        0.000000    0.000000   -1.250000
 ---------------------------------------------------------------------

 SCF Done:  E(ROHF) =  -104.184038889     A.U. after   51 cycles
 E2 =    -0.5933847969D+00 EUMP2 =    -0.10477742368624D+03
 CCSD(T)
 CCSD(T)= -0.10479802678D+03

 The electronic state is 7-SG.
 Alpha  occ. eigenvalues --   -4.13420  -2.76498  -2.75931  -2.75931  -0.67266
 Alpha  occ. eigenvalues --   -0.64386  -0.64386  -0.64202  -0.64202  -0.41796
 Alpha  occ. eigenvalues --   -0.24233
 Alpha virt. eigenvalues --    0.01390   0.01390   0.02148   0.03279   0.05878
 Alpha virt. eigenvalues --    0.05878   0.08512   0.08512   0.08590   0.08946
 Alpha virt. eigenvalues --    0.08946   0.09061   0.14200   0.21540   0.22803

 Mulliken charges and spin densities:
               1          2
     1  Mn   0.459255   5.939931
     2  H   -0.459255   0.060069
 Sum of Mulliken charges =  -0.00000   6.00000

 Dipole moment (field-independent basis, Debye):
    X=              0.0000    Y=              0.0000    Z=             -0.0227  Tot=              0.0227
 Quadrupole moment (field-independent basis, Debye-Ang):
   XX=            -15.8973   YY=            -15.8973   ZZ=            -25.3031
   XY=              0.0000   XZ=              0.0000   YZ=              0.0000

 \\#P ROCCSD(T)=(maxcyc=150, Full, SaveAmplitudes, ReadAmplitudes)/Gen
 4SDQ=-104.7802469\CCSD=-104.7812385\CCSD(T)=-104.7980268\RMSD=9.627e-0
 Normal termination of Gaussian 16 at Wed Apr  4 02:06:08 2018.
