 Gaussian 16, Revision A.03,
 Gaussian 16:  ES64L-G16RevA.03 25-Dec-2016

 ----------------------------------------------------------------------
 #P ROCCSD(T)=(maxcyc=150, Full, SaveAmplitudes, ReadAmplitudes)/Gen 5d
  7f SCF=(maxcycles=300) Integral(NoXCTest) MaxDisk=500GB Pop=Regular P
 seudo=Read Guess=Read IOp(5/15=2)
 ----------------------------------------------------------------------

 ---
 TiO
 ---
 Symbolic Z-matrix:
 Charge =  0 Multiplicity = 3

                         Standard orientation:
 ---------------------------------------------------------------------
 Center     Atomic      Atomic             Coordinates (Angstroms)
 Number     Number       Type             X           Y           Z
 ---------------------------------------------------------------------
      1         22           0        0.000000    0.000000    0.346667
      2          8           0        0.000000    0.000000   -0.953333
 ---------------------------------------------------------------------

 SCF Done:  E(ROHF) =  -73.4183664619     A.U. after   23 cycles
 E2 =    -0.7395920940D+00 EUMP2 =    -0.74157958555880D+02
 CCSD(T)
 CCSD(T)= -0.74181972806D+02

 Unable to determine electronic state:  an orbital has unidentified symmetry.
 Alpha  occ. eigenvalues --   -2.97059  -1.95317  -1.81995  -1.81995  -1.13717
 Alpha  occ. eigenvalues --   -0.58910  -0.58910  -0.52333  -0.35892  -0.21795
 Alpha virt. eigenvalues --    0.01213   0.01213   0.02326   0.02530   0.04835
 Alpha virt. eigenvalues --    0.04835   0.05020   0.05173   0.05331   0.05802
 Alpha virt. eigenvalues --    0.05802   0.08546   0.11751   0.13802   0.14662

 Mulliken charges and spin densities:
               1          2
     1  Ti   0.690297   2.041047
     2  O   -0.690297  -0.041047
 Sum of Mulliken charges =  -0.00000   2.00000

 Dipole moment (field-independent basis, Debye):
    X=              0.0000    Y=              0.0000    Z=              0.7219  Tot=              0.7219
 Quadrupole moment (field-independent basis, Debye-Ang):
   XX=            -21.8978   YY=            -21.8978   ZZ=            -26.8432
   XY=              0.0000   XZ=              0.0000   YZ=              0.0000

 \\#P ROCCSD(T)=(maxcyc=150, Full, SaveAmplitudes, ReadAmplitudes)/Gen
 .1468009\CCSD(T)=-74.1819728\RMSD=7.218e-09\PG=C*V [C*(O1Ti1)]\\@
 Normal termination of Gaussian 16 at Mon Mar 12 23:31:18 2018.
