 Gaussian 16, Revision A.03,
 Gaussian 16:  ES64L-G16RevA.03 25-Dec-2016

 ----------------------------------------------------------------------
 #P ROCCSD(T)=(maxcyc=150, Full, SaveAmplitudes, ReadAmplitudes)/Gen 5d
  7f SCF=(maxcycles=300, VShift=400) Integral(NoXCTest) MaxDisk=500GB P
 op=Full Pseudo=Read Guess=Read
 ----------------------------------------------------------------------

 ---
 MnH
 ---
 Symbolic Z-matrix:
 Charge =  0 Multiplicity = 7

                         Standard orientation:
 ---------------------------------------------------------------------
 Center     Atomic      Atomic             Coordinates (Angstroms)
 Number     Number       Type             X           Y           Z
 ---------------------------------------------------------------------
      1         25           0        0.000000    0.000000    0.065385
      2          1           0        0.000000    0.000000   -1.634615
 ---------------------------------------------------------------------

 SCF Done:  E(ROHF) =  -104.255057951     A.U. after   29 cycles
 E2 =    -0.6038985498D+00 EUMP2 =    -0.10485895650071D+03
 CCSD(T)
 CCSD(T)= -0.10488013555D+03

 The electronic state is 7-SG.
 Alpha  occ. eigenvalues --   -4.14188  -2.76976  -2.76976  -2.76810  -0.65372
 Alpha  occ. eigenvalues --   -0.65372  -0.65141  -0.64700  -0.64700  -0.40819
 Alpha  occ. eigenvalues --   -0.26036
 Alpha virt. eigenvalues --    0.01196   0.01196   0.02152   0.02926   0.05070
 Alpha virt. eigenvalues --    0.05070   0.05643   0.05801   0.05801   0.06197
 Alpha virt. eigenvalues --    0.06197   0.09066   0.13345   0.14091   0.18053

 Mulliken charges and spin densities:
               1          2
     1  Mn   0.366387   5.950072
     2  H   -0.366387   0.049928
 Sum of Mulliken charges =  -0.00000   6.00000

 Dipole moment (field-independent basis, Debye):
    X=              0.0000    Y=              0.0000    Z=              1.3131  Tot=              1.3131
 Quadrupole moment (field-independent basis, Debye-Ang):
   XX=            -16.1077   YY=            -16.1077   ZZ=            -26.3434
   XY=              0.0000   XZ=              0.0000   YZ=              0.0000

 \\#P ROCCSD(T)=(maxcyc=150, Full, SaveAmplitudes, ReadAmplitudes)/Gen
 PUHF=-104.255058\PMP2-0=-104.8589565\CCSD=-104.863494\CCSD(T)=-104.880
 Normal termination of Gaussian 16 at Wed Apr  4 02:37:45 2018.
