 Gaussian 16, Revision A.03,
 Gaussian 16:  ES64L-G16RevA.03 25-Dec-2016

 ----------------------------------------------------------------------
 #P ROCCSD(T)=(maxcyc=150, Full, SaveAmplitudes, ReadAmplitudes)/Gen 5d
  7f SCF=(maxcycles=300) Integral(NoXCTest) MaxDisk=500GB Pop=Regular P
 seudo=Read Guess=Read IOp(5/15=2)
 ----------------------------------------------------------------------

 ---
 ScO
 ---
 Symbolic Z-matrix:
 Charge =  0 Multiplicity = 2

                         Standard orientation:
 ---------------------------------------------------------------------
 Center     Atomic      Atomic             Coordinates (Angstroms)
 Number     Number       Type             X           Y           Z
 ---------------------------------------------------------------------
      1         21           0        0.000000    0.000000    0.551724
      2          8           0        0.000000    0.000000   -1.448276
 ---------------------------------------------------------------------

 SCF Done:  E(ROHF) =  -61.8964788716     A.U. after   17 cycles
 E2 =    -0.6994716738D+00 EUMP2 =    -0.62595950545369D+02
 CCSD(T)
 CCSD(T)= -0.62629905375D+02

 The electronic state is 2-SG.
 Alpha  occ. eigenvalues --   -2.74004  -1.70381  -1.70381  -1.69884  -1.09850
 Alpha  occ. eigenvalues --   -0.38958  -0.34764  -0.34764  -0.28357
 Alpha virt. eigenvalues --   -0.01333  -0.01333   0.00540   0.01741   0.02817
 Alpha virt. eigenvalues --    0.02817   0.03106   0.03106   0.03689   0.04380
 Alpha virt. eigenvalues --    0.04380   0.04988   0.05094   0.05094   0.09675

 Mulliken charges and spin densities:
               1          2
     1  Sc   1.184997   0.977766
     2  O   -1.184997   0.022234
 Sum of Mulliken charges =  -0.00000   1.00000

 Dipole moment (field-independent basis, Debye):
    X=              0.0000    Y=              0.0000    Z=              7.4540  Tot=              7.4540
 Quadrupole moment (field-independent basis, Debye-Ang):
   XX=            -22.0815   YY=            -22.0815   ZZ=            -34.8158
   XY=              0.0000   XZ=              0.0000   YZ=              0.0000

 \\#P ROCCSD(T)=(maxcyc=150, Full, SaveAmplitudes, ReadAmplitudes)/Gen
 7\CCSD=-62.5778592\CCSD(T)=-62.6299054\RMSD=7.694e-09\PG=C*V [C*(O1Sc1
 Normal termination of Gaussian 16 at Wed Mar  7 11:47:18 2018.
