 Gaussian 16, Revision A.03,
 Gaussian 16:  ES64L-G16RevA.03 25-Dec-2016

 ----------------------------------------------------------------------
 #P ROCCSD(T)=(MaxCyc=150, Full)/Gen SCF=(maxcycle=400, vshift=200) Pse
 udo=Read Integral(NoXCTest) Pop=Regular MaxDisk=500GB Guess=Read
 ----------------------------------------------------------------------

 ---
 NiO
 ---
 Symbolic Z-matrix:
 Charge =  0 Multiplicity = 3

                         Standard orientation:
 ---------------------------------------------------------------------
 Center     Atomic      Atomic             Coordinates (Angstroms)
 Number     Number       Type             X           Y           Z
 ---------------------------------------------------------------------
      1         28           0        0.000000    0.000000    0.355556
      2          8           0        0.000000    0.000000   -1.244444
 ---------------------------------------------------------------------

 SCF Done:  E(ROHF) =  -184.050771260     A.U. after   19 cycles
 E2 =    -0.1226939145D+01 EUMP2 =    -0.18527771040504D+03
 CCSD(T)
 CCSD(T)= -0.18529987292D+03

 The electronic state is 3-SG.
 Alpha  occ. eigenvalues --   -5.18493  -3.50155  -3.41702  -3.41702  -1.17330
 Alpha  occ. eigenvalues --   -0.79741  -0.79741  -0.72890  -0.70552  -0.70552
 Alpha  occ. eigenvalues --   -0.38392  -0.38392  -0.37510
 Alpha virt. eigenvalues --   -0.05103   0.01892   0.01892   0.01993   0.03885
 Alpha virt. eigenvalues --    0.06939   0.06939   0.07581   0.08019   0.08019
 Alpha virt. eigenvalues --    0.09208   0.09208   0.12877   0.15003   0.22026

 Mulliken charges and spin densities:
               1          2
     1  Ni   1.003447   1.887467
     2  O   -1.003447   0.112533
 Sum of Mulliken charges =  -0.00000   2.00000

 Dipole moment (field-independent basis, Debye):
    X=              0.0000    Y=              0.0000    Z=              7.9511  Tot=              7.9511
 Quadrupole moment (field-independent basis, Debye-Ang):
   XX=            -18.4140   YY=            -18.4140   ZZ=            -21.0907
   XY=              0.0000   XZ=              0.0000   YZ=              0.0000

 \\#P ROCCSD(T)=(MaxCyc=150, Full)/Gen SCF=(maxcycle=400, vshift=200) P
 PMP2-0=-185.2777104\MP4SDQ=-185.2474916\CCSD=-185.2364217\CCSD(T)=-185
 Normal termination of Gaussian 16 at Fri May 11 04:45:28 2018.
