 Gaussian 16, Revision A.03,
 Gaussian 16:  ES64L-G16RevA.03 25-Dec-2016

 ----------------------------------------------------------------------
 #P ROCCSD(T)=(MaxCyc=150, Full)/Gen SCF=(maxcycle=400) Pseudo=Read Int
 egral(NoXCTest) Pop=Regular MaxDisk=500GB Guess=Read IOp(5/15=2)
 ----------------------------------------------------------------------

 ---
 NiO
 ---
 Symbolic Z-matrix:
 Charge =  0 Multiplicity = 3

                         Standard orientation:
 ---------------------------------------------------------------------
 Center     Atomic      Atomic             Coordinates (Angstroms)
 Number     Number       Type             X           Y           Z
 ---------------------------------------------------------------------
      1         28           0        0.000000    0.000000    0.355556
      2          8           0        0.000000    0.000000   -1.244444
 ---------------------------------------------------------------------

 SCF Done:  E(ROHF) =  -184.712885636     A.U. after    1 cycles
 E2 =    -0.1180140416D+01 EUMP2 =    -0.18589302605292D+03
 CCSD(T)
 CCSD(T)= -0.18591644755D+03

 The electronic state is 3-SG.
 Alpha  occ. eigenvalues --   -5.21962  -3.50704  -3.42244  -3.42244  -1.17300
 Alpha  occ. eigenvalues --   -0.79753  -0.79753  -0.72957  -0.70568  -0.70568
 Alpha  occ. eigenvalues --   -0.38270  -0.38270  -0.37627
 Alpha virt. eigenvalues --   -0.05229   0.02243   0.02257   0.02257   0.04310
 Alpha virt. eigenvalues --    0.08129   0.08129   0.10602   0.12179   0.12179
 Alpha virt. eigenvalues --    0.13244   0.13244   0.15535   0.16135   0.26385

 Mulliken charges and spin densities:
               1          2
     1  Ni   1.119791   1.886016
     2  O   -1.119791   0.113984
 Sum of Mulliken charges =   0.00000   2.00000

 Dipole moment (field-independent basis, Debye):
    X=              0.0000    Y=              0.0000    Z=              8.0134  Tot=              8.0134
 Quadrupole moment (field-independent basis, Debye-Ang):
   XX=            -18.3661   YY=            -18.3661   ZZ=            -21.0442
   XY=              0.0000   XZ=              0.0000   YZ=              0.0000

 \\#P ROCCSD(T)=(MaxCyc=150, Full)/Gen SCF=(maxcycle=400) Pseudo=Read I
 PMP2-0=-185.8930261\MP4SDQ=-185.8681887\CCSD=-185.8553562\CCSD(T)=-185
 Normal termination of Gaussian 16 at Mon Mar 26 18:19:19 2018.
