 Gaussian 16, Revision A.03,
 Gaussian 16:  ES64L-G16RevA.03 25-Dec-2016

 ----------------------------------------------------------------------
 #P ROCCSD(T)=(MaxCyc=150, Full)/Gen SCF=(maxcycle=400, vshift=200) Pse
 udo=Read Integral(NoXCTest) Pop=Regular MaxDisk=500GB Guess=Read
 ----------------------------------------------------------------------

 ---
 NiO
 ---
 Symbolic Z-matrix:
 Charge =  0 Multiplicity = 3

                         Standard orientation:
 ---------------------------------------------------------------------
 Center     Atomic      Atomic             Coordinates (Angstroms)
 Number     Number       Type             X           Y           Z
 ---------------------------------------------------------------------
      1         28           0        0.000000    0.000000    0.355556
      2          8           0        0.000000    0.000000   -1.244444
 ---------------------------------------------------------------------

 SCF Done:  E(ROHF) =  -184.047095064     A.U. after   27 cycles
 E2 =    -0.1169451492D+01 EUMP2 =    -0.18521654655550D+03
 CCSD(T)
 CCSD(T)= -0.18524095914D+03

 The electronic state is 3-SG.
 Alpha  occ. eigenvalues --   -5.18499  -3.50177  -3.41717  -3.41717  -1.17375
 Alpha  occ. eigenvalues --   -0.79744  -0.79744  -0.72896  -0.70551  -0.70551
 Alpha  occ. eigenvalues --   -0.38388  -0.38388  -0.37520
 Alpha virt. eigenvalues --   -0.05114   0.02266   0.02266   0.02276   0.04305
 Alpha virt. eigenvalues --    0.08157   0.08157   0.10619   0.12181   0.12181
 Alpha virt. eigenvalues --    0.13245   0.13245   0.15539   0.16177   0.26367

 Mulliken charges and spin densities:
               1          2
     1  Ni   1.118257   1.885778
     2  O   -1.118257   0.114222
 Sum of Mulliken charges =  -0.00000   2.00000

 Dipole moment (field-independent basis, Debye):
    X=              0.0000    Y=              0.0000    Z=              7.9653  Tot=              7.9653
 Quadrupole moment (field-independent basis, Debye-Ang):
   XX=            -18.4222   YY=            -18.4222   ZZ=            -21.1063
   XY=              0.0000   XZ=              0.0000   YZ=              0.0000

 \\#P ROCCSD(T)=(MaxCyc=150, Full)/Gen SCF=(maxcycle=400, vshift=200) P
 PMP2-0=-185.2165466\MP4SDQ=-185.1921463\CCSD=-185.1801249\CCSD(T)=-185
 Normal termination of Gaussian 16 at Fri May 11 03:34:20 2018.
