 Gaussian 16, Revision A.03,
 Gaussian 16:  ES64L-G16RevA.03 25-Dec-2016

 ----------------------------------------------------------------------
 #P ROCCSD(T)=(MaxCyc=150, Full)/Gen SCF=(maxcycle=400) Pseudo=Read Int
 egral(NoXCTest) Pop=Regular MaxDisk=500GB Guess=Read IOp(5/15=2)
 ----------------------------------------------------------------------

 ---
 NiO
 ---
 Symbolic Z-matrix:
 Charge =  0 Multiplicity = 3

                         Standard orientation:
 ---------------------------------------------------------------------
 Center     Atomic      Atomic             Coordinates (Angstroms)
 Number     Number       Type             X           Y           Z
 ---------------------------------------------------------------------
      1         28           0        0.000000    0.000000    0.355556
      2          8           0        0.000000    0.000000   -1.244444
 ---------------------------------------------------------------------

 SCF Done:  E(ROHF) =  -184.716628792     A.U. after   19 cycles
 E2 =    -0.1237579757D+01 EUMP2 =    -0.18595420854971D+03
 CCSD(T)
 CCSD(T)= -0.18597530890D+03

 The electronic state is 3-SG.
 Alpha  occ. eigenvalues --   -5.21958  -3.50677  -3.42223  -3.42223  -1.17255
 Alpha  occ. eigenvalues --   -0.79749  -0.79749  -0.72951  -0.70569  -0.70569
 Alpha  occ. eigenvalues --   -0.38274  -0.38274  -0.37617
 Alpha virt. eigenvalues --   -0.05217   0.01883   0.01883   0.01961   0.03888
 Alpha virt. eigenvalues --    0.06922   0.06922   0.07576   0.08018   0.08018
 Alpha virt. eigenvalues --    0.09203   0.09203   0.12873   0.14957   0.21949

 Mulliken charges and spin densities:
               1          2
     1  Ni   1.004314   1.887761
     2  O   -1.004314   0.112239
 Sum of Mulliken charges =  -0.00000   2.00000

 Dipole moment (field-independent basis, Debye):
    X=              0.0000    Y=              0.0000    Z=              7.9991  Tot=              7.9991
 Quadrupole moment (field-independent basis, Debye-Ang):
   XX=            -18.3578   YY=            -18.3578   ZZ=            -21.0283
   XY=              0.0000   XZ=              0.0000   YZ=              0.0000

 \\#P ROCCSD(T)=(MaxCyc=150, Full)/Gen SCF=(maxcycle=400) Pseudo=Read I
 PMP2-0=-185.9542085\MP4SDQ=-185.9234766\CCSD=-185.9115987\CCSD(T)=-185
 Normal termination of Gaussian 16 at Mon Mar 26 20:57:47 2018.
