 Gaussian 16, Revision A.03,
 Gaussian 16:  ES64L-G16RevA.03 25-Dec-2016

 ----------------------------------------------------------------------
 #P ROCCSD(T)=(maxcyc=100, Full)/Gen SCF=(maxcycle=400, symm) Pseudo=Re
 ad Integral(NoXCTest) Pop=Regular MaxDisk=500GB Guess=Permute IOp(5/15
 =2)
 ----------------------------------------------------------------------

 ---
 FeH
 ---
 Symbolic Z-matrix:
 Charge =  0 Multiplicity = 4

                         Standard orientation:
 ---------------------------------------------------------------------
 Center     Atomic      Atomic             Coordinates (Angstroms)
 Number     Number       Type             X           Y           Z
 ---------------------------------------------------------------------
      1         26           0        0.000000    0.000000    0.051852
      2          1           0        0.000000    0.000000   -1.348148
 ---------------------------------------------------------------------

 SCF Done:  E(ROHF) =  -123.498127506     A.U. after   27 cycles
 E2 =    -0.8166810098D+00 EUMP2 =    -0.12431480851560D+03
 CCSD(T)
 CCSD(T)= -0.12430961470D+03

 Unable to determine electronic state:  an orbital has unidentified symmetry.
 Alpha  occ. eigenvalues --   -4.40137  -2.82789  -2.81602  -2.81602  -0.52212
 Alpha  occ. eigenvalues --   -0.52212  -0.50722  -0.48735  -0.45786  -0.31320
 Alpha virt. eigenvalues --   -0.00063   0.02180   0.02180   0.02481   0.03652
 Alpha virt. eigenvalues --    0.05830   0.06255   0.06265   0.06310   0.06310
 Alpha virt. eigenvalues --    0.07322   0.07322   0.08378   0.13037   0.17110

 Mulliken charges and spin densities:
               1          2
     1  Fe   0.317327   2.993541
     2  H   -0.317327   0.006459
 Sum of Mulliken charges =  -0.00000   3.00000

 Dipole moment (field-independent basis, Debye):
    X=              0.0000    Y=              0.0000    Z=              3.7678  Tot=              3.7678
 Quadrupole moment (field-independent basis, Debye-Ang):
   XX=            -16.1103   YY=            -16.1103   ZZ=            -16.4368
   XY=              0.0000   XZ=              0.0000   YZ=              0.0000

 \\#P ROCCSD(T)=(maxcyc=100, Full)/Gen SCF=(maxcycle=400, symm) Pseudo=
 2788495\CCSD(T)=-124.3096147\RMSD=9.614e-09\PG=C*V [C*(H1Fe1)]\\@
 Normal termination of Gaussian 16 at Mon Feb 12 22:36:55 2018.
