 Gaussian 16, Revision A.03,
 Gaussian 16:  ES64L-G16RevA.03 25-Dec-2016

 ----------------------------------------------------------------------
 #P ROCCSD(T)=(maxcyc=100, Full)/Gen SCF=(maxcycle=400, symm) Pseudo=Re
 ad Integral(NoXCTest) Pop=Regular MaxDisk=500GB Guess=Permute IOp(5/15
 =2)
 ----------------------------------------------------------------------

 ---
 FeH
 ---
 Symbolic Z-matrix:
 Charge =  0 Multiplicity = 4

                         Standard orientation:
 ---------------------------------------------------------------------
 Center     Atomic      Atomic             Coordinates (Angstroms)
 Number     Number       Type             X           Y           Z
 ---------------------------------------------------------------------
      1         26           0        0.000000    0.000000    0.051852
      2          1           0        0.000000    0.000000   -1.348148
 ---------------------------------------------------------------------

 SCF Done:  E(ROHF) =  -123.492797199     A.U. after   37 cycles
 E2 =    -0.8025605145D+00 EUMP2 =    -0.12429535771314D+03
 CCSD(T)
 CCSD(T)= -0.12429217772D+03

 Unable to determine electronic state:  partially filled degenerate orbitals.
 Alpha  occ. eigenvalues --   -4.40030  -2.82832  -2.81645  -2.81645  -0.52211
 Alpha  occ. eigenvalues --   -0.52211  -0.50721  -0.48732  -0.45781  -0.31318
 Alpha virt. eigenvalues --   -0.00025   0.02245   0.02245   0.02777   0.04240
 Alpha virt. eigenvalues --    0.06238   0.06829   0.06838   0.06838   0.06842
 Alpha virt. eigenvalues --    0.07662   0.07662   0.09561   0.16933   0.17914

 Mulliken charges and spin densities:
               1          2
     1  Fe   0.360083   2.996560
     2  H   -0.360083   0.003440
 Sum of Mulliken charges =   0.00000   3.00000

 Dipole moment (field-independent basis, Debye):
    X=              0.0000    Y=              0.0000    Z=              3.7691  Tot=              3.7691
 Quadrupole moment (field-independent basis, Debye-Ang):
   XX=            -16.1133   YY=            -16.1133   ZZ=            -16.4380
   XY=              0.0000   XZ=              0.0000   YZ=              0.0000

 \\#P ROCCSD(T)=(maxcyc=100, Full)/Gen SCF=(maxcycle=400, symm) Pseudo=
 907\CCSD(T)=-124.2921777\RMSD=7.281e-09\PG=C*V [C*(H1Fe1)]\\@
 Normal termination of Gaussian 16 at Mon Feb 12 21:00:31 2018.
