 Gaussian 16, Revision A.03,
 Gaussian 16:  ES64L-G16RevA.03 25-Dec-2016

 ----------------------------------------------------------------------
 #P ROCCSD(T)=(maxcyc=100, Full)/Gen SCF=(maxcycle=400, symm) Pseudo=Re
 ad Integral(NoXCTest) Pop=Regular MaxDisk=500GB Guess=Permute IOp(5/15
 =2)
 ----------------------------------------------------------------------

 ---
 FeH
 ---
 Symbolic Z-matrix:
 Charge =  0 Multiplicity = 4

                         Standard orientation:
 ---------------------------------------------------------------------
 Center     Atomic      Atomic             Coordinates (Angstroms)
 Number     Number       Type             X           Y           Z
 ---------------------------------------------------------------------
      1         26           0        0.000000    0.000000    0.051852
      2          1           0        0.000000    0.000000   -1.348148
 ---------------------------------------------------------------------

 SCF Done:  E(ROHF) =  -123.496808624     A.U. after   25 cycles
 E2 =    -0.7672657185D+00 EUMP2 =    -0.12426407434243D+03
 CCSD(T)
 CCSD(T)= -0.12426291335D+03

 Unable to determine electronic state:  an orbital has unidentified symmetry.
 Alpha  occ. eigenvalues --   -4.40191  -2.82811  -2.81621  -2.81621  -0.52215
 Alpha  occ. eigenvalues --   -0.52215  -0.50722  -0.48726  -0.45780  -0.31319
 Alpha virt. eigenvalues --    0.00002   0.02470   0.02470   0.03041   0.04466
 Alpha virt. eigenvalues --    0.08405   0.08405   0.09612   0.10299   0.10336
 Alpha virt. eigenvalues --    0.10351   0.10351   0.10590   0.16953   0.24508

 Mulliken charges and spin densities:
               1          2
     1  Fe   0.402684   2.994898
     2  H   -0.402684   0.005102
 Sum of Mulliken charges =   0.00000   3.00000

 Dipole moment (field-independent basis, Debye):
    X=              0.0000    Y=              0.0000    Z=              3.7701  Tot=              3.7701
 Quadrupole moment (field-independent basis, Debye-Ang):
   XX=            -16.1254   YY=            -16.1254   ZZ=            -16.4275
   XY=              0.0000   XZ=              0.0000   YZ=              0.0000

 \\#P ROCCSD(T)=(maxcyc=100, Full)/Gen SCF=(maxcycle=400, symm) Pseudo=
 2340743\CCSD(T)=-124.2629134\RMSD=8.313e-09\PG=C*V [C*(H1Fe1)]\\@
 Normal termination of Gaussian 16 at Mon Feb 12 20:23:01 2018.
