 Gaussian 16, Revision A.03,
 Gaussian 16:  ES64L-G16RevA.03 25-Dec-2016

 ----------------------------------------------------------------------
 #P ROCCSD(T)=(maxcyc=150, Full, SaveAmplitudes, ReadAmplitudes)/Gen 5d
  7f SCF=(maxcycles=300) Integral(NoXCTest) MaxDisk=500GB Pop=Regular P
 seudo=Read Guess=Read IOp(5/15=2)
 ----------------------------------------------------------------------

 ---
 TiO
 ---
 Symbolic Z-matrix:
 Charge =  0 Multiplicity = 3

                         Standard orientation:
 ---------------------------------------------------------------------
 Center     Atomic      Atomic             Coordinates (Angstroms)
 Number     Number       Type             X           Y           Z
 ---------------------------------------------------------------------
      1         22           0        0.000000    0.000000    0.400000
      2          8           0        0.000000    0.000000   -1.100000
 ---------------------------------------------------------------------

 SCF Done:  E(ROHF) =  -73.3878190867     A.U. after   21 cycles
 E2 =    -0.7410337675D+00 EUMP2 =    -0.74128852854224D+02
 CCSD(T)
 CCSD(T)= -0.74155995455D+02

 Unable to determine electronic state:  an orbital has unidentified symmetry.
 Alpha  occ. eigenvalues --   -2.98291  -1.90272  -1.88142  -1.88142  -1.17102
 Alpha  occ. eigenvalues --   -0.48995  -0.48995  -0.48560  -0.42453  -0.24809
 Alpha virt. eigenvalues --    0.00726   0.00726   0.01919   0.02580   0.04390
 Alpha virt. eigenvalues --    0.04390   0.04944   0.05040   0.05231   0.05841
 Alpha virt. eigenvalues --    0.05841   0.07453   0.11385   0.11887   0.14098

 Mulliken charges and spin densities:
               1          2
     1  Ti   0.854555   2.010145
     2  O   -0.854555  -0.010145
 Sum of Mulliken charges =  -0.00000   2.00000

 Dipole moment (field-independent basis, Debye):
    X=              0.0000    Y=              0.0000    Z=              3.0655  Tot=              3.0655
 Quadrupole moment (field-independent basis, Debye-Ang):
   XX=            -21.5469   YY=            -21.5469   ZZ=            -28.4708
   XY=              0.0000   XZ=              0.0000   YZ=              0.0000

 \\#P ROCCSD(T)=(maxcyc=150, Full, SaveAmplitudes, ReadAmplitudes)/Gen
 .1150248\CCSD(T)=-74.1559955\RMSD=9.582e-09\PG=C*V [C*(O1Ti1)]\\@
 Normal termination of Gaussian 16 at Sat Mar 10 00:28:11 2018.
