 Gaussian 16, Revision A.03,
 Gaussian 16:  ES64L-G16RevA.03 25-Dec-2016

 ----------------------------------------------------------------------
 #P ROCCSD(T)=(MaxCyc=150, Full)/Gen SCF=(maxcycle=400, vshift=200) Pse
 udo=Read Integral(NoXCTest) Pop=Regular MaxDisk=500GB Guess=Read IOp(5
 /15=2)
 ----------------------------------------------------------------------

 ---
 CuO
 ---
 Symbolic Z-matrix:
 Charge =  0 Multiplicity = 2

                         Standard orientation:
 ---------------------------------------------------------------------
 Center     Atomic      Atomic             Coordinates (Angstroms)
 Number     Number       Type             X           Y           Z
 ---------------------------------------------------------------------
      1         29           0        0.000000    0.000000    0.367568
      2          8           0        0.000000    0.000000   -1.332432
 ---------------------------------------------------------------------

 SCF Done:  E(ROHF) =  -211.047455797     A.U. after   19 cycles
 E2 =    -0.1343971335D+01 EUMP2 =    -0.21239142713202D+03
 CCSD(T)
 CCSD(T)= -0.21232226430D+03

 Unable to determine electronic state:  an orbital has unidentified symmetry.
 Alpha  occ. eigenvalues --   -5.25335  -3.42556  -3.42133  -3.41844  -1.24225
 Alpha  occ. eigenvalues --   -0.58430  -0.55309  -0.54737  -0.52300  -0.52298
 Alpha  occ. eigenvalues --   -0.47859  -0.41869  -0.40127
 Alpha virt. eigenvalues --   -0.01144   0.02557   0.02687   0.03542   0.04473
 Alpha virt. eigenvalues --    0.08936   0.09202   0.11744   0.13403   0.13411
 Alpha virt. eigenvalues --    0.14439   0.14512   0.14972   0.19051   0.21396

 Mulliken charges and spin densities:
               1          2
     1  Cu   0.747306   0.021116
     2  O   -0.747306   0.978884
 Sum of Mulliken charges =  -0.00000   1.00000

 Dipole moment (field-independent basis, Debye):
    X=              0.0000    Y=              0.0000    Z=              5.6204  Tot=              5.6204
 Quadrupole moment (field-independent basis, Debye-Ang):
   XX=            -15.7017   YY=            -17.2354   ZZ=            -20.2416
   XY=              0.0000   XZ=              0.0000   YZ=              0.0000

 \\#P ROCCSD(T)=(MaxCyc=150, Full)/Gen SCF=(maxcycle=400, vshift=200) P
 \PMP2-0=-212.3914271\MP4SDQ=-212.3493421\CCSD=-212.2736359\CCSD(T)=-21
 Normal termination of Gaussian 16 at Sun May  6 00:11:39 2018.
