 Gaussian 16, Revision A.03,
 Gaussian 16:  ES64L-G16RevA.03 25-Dec-2016

 ----------------------------------------------------------------------
 #P ROCCSD(T)=(MaxCyc=150, Full)/Gen SCF=(maxcycle=400, vshift=200) Pse
 udo=Read Integral(NoXCTest) Pop=Regular MaxDisk=500GB Guess=Read IOp(5
 /15=2)
 ----------------------------------------------------------------------

 ---
 CuO
 ---
 Symbolic Z-matrix:
 Charge =  0 Multiplicity = 2

                         Standard orientation:
 ---------------------------------------------------------------------
 Center     Atomic      Atomic             Coordinates (Angstroms)
 Number     Number       Type             X           Y           Z
 ---------------------------------------------------------------------
      1         29           0        0.000000    0.000000    0.367568
      2          8           0        0.000000    0.000000   -1.332432
 ---------------------------------------------------------------------

 SCF Done:  E(ROHF) =  -211.043493218     A.U. after   18 cycles
 E2 =    -0.1279870783D+01 EUMP2 =    -0.21232336400165D+03
 CCSD(T)
 CCSD(T)= -0.21225705159D+03

 Unable to determine electronic state:  an orbital has unidentified symmetry.
 Alpha  occ. eigenvalues --   -5.25347  -3.42583  -3.42155  -3.41863  -1.24274
 Alpha  occ. eigenvalues --   -0.58426  -0.55308  -0.54751  -0.52298  -0.52297
 Alpha  occ. eigenvalues --   -0.47859  -0.41868  -0.40138
 Alpha virt. eigenvalues --   -0.01142   0.02871   0.03031   0.04008   0.04701
 Alpha virt. eigenvalues --    0.10437   0.10782   0.13652   0.19419   0.19581
 Alpha virt. eigenvalues --    0.19608   0.20858   0.21623   0.22687   0.26053

 Mulliken charges and spin densities:
               1          2
     1  Cu   0.823468   0.020478
     2  O   -0.823468   0.979522
 Sum of Mulliken charges =  -0.00000   1.00000

 Dipole moment (field-independent basis, Debye):
    X=              0.0000    Y=              0.0000    Z=              5.6353  Tot=              5.6353
 Quadrupole moment (field-independent basis, Debye-Ang):
   XX=            -15.7109   YY=            -17.2618   ZZ=            -20.2286
   XY=              0.0000   XZ=              0.0000   YZ=              0.0000

 \\#P ROCCSD(T)=(MaxCyc=150, Full)/Gen SCF=(maxcycle=400, vshift=200) P
 PMP2-0=-212.323364\MP4SDQ=-212.2873316\CCSD=-212.2109515\CCSD(T)=-212.
 Normal termination of Gaussian 16 at Sat May  5 21:36:10 2018.
