 Gaussian 16, Revision A.03,
 Gaussian 16:  ES64L-G16RevA.03 25-Dec-2016

 ----------------------------------------------------------------------
 #P ROCCSD(T)=(maxcyc=150, Full, SaveAmplitudes, ReadAmplitudes)/Gen 5d
  7f SCF=(maxcycles=300) Integral(NoXCTest) MaxDisk=500GB Pop=Regular P
 seudo=Read Guess=Read
 ----------------------------------------------------------------------

 ---
 MnO
 ---
 Symbolic Z-matrix:
 Charge =  0 Multiplicity = 6

                         Standard orientation:
 ---------------------------------------------------------------------
 Center     Atomic      Atomic             Coordinates (Angstroms)
 Number     Number       Type             X           Y           Z
 ---------------------------------------------------------------------
      1         25           0        0.000000    0.000000    0.436364
      2          8           0        0.000000    0.000000   -1.363636
 ---------------------------------------------------------------------

 SCF Done:  E(ROHF) =  -119.173039049     A.U. after   23 cycles
 E2 =    -0.9289495919D+00 EUMP2 =    -0.12010198864119D+03
 CCSD(T)
 CCSD(T)= -0.12012817218D+03

 The electronic state is 6-SG.
 Alpha  occ. eigenvalues --   -4.24316  -2.80066  -2.80066  -2.79484  -1.10601
 Alpha  occ. eigenvalues --   -0.65216  -0.65216  -0.64937  -0.64937  -0.61737
 Alpha  occ. eigenvalues --   -0.33776  -0.33776  -0.33173
 Alpha virt. eigenvalues --   -0.05199   0.01180   0.01180   0.01417   0.03358
 Alpha virt. eigenvalues --    0.05693   0.05693   0.05714   0.05714   0.06383
 Alpha virt. eigenvalues --    0.06902   0.06902   0.10994   0.12602   0.17840

 Mulliken charges and spin densities:
               1          2
     1  Mn   1.150572   4.937688
     2  O   -1.150572   0.062312
 Sum of Mulliken charges =  -0.00000   5.00000

 Dipole moment (field-independent basis, Debye):
    X=              0.0000    Y=              0.0000    Z=              9.4374  Tot=              9.4374
 Quadrupole moment (field-independent basis, Debye-Ang):
   XX=            -19.0639   YY=            -19.0639   ZZ=            -24.6117
   XY=              0.0000   XZ=              0.0000   YZ=              0.0000

 \\#P ROCCSD(T)=(maxcyc=150, Full, SaveAmplitudes, ReadAmplitudes)/Gen
 .173039\PMP2-0=-120.1019886\CCSD=-120.0854231\CCSD(T)=-120.1281722\RMS
 Normal termination of Gaussian 16 at Tue Mar 13 16:07:01 2018.
