 Gaussian 16, Revision A.03,
 Gaussian 16:  ES64L-G16RevA.03 25-Dec-2016

 ----------------------------------------------------------------------
 #P ROCCSD(T)=(maxcyc=100, Full)/Gen SCF=(maxcycle=400, symm) Pseudo=Re
 ad Integral(NoXCTest) Pop=Regular MaxDisk=500GB Guess=Permute IOp(5/15
 =2)
 ----------------------------------------------------------------------

 ---
 FeH
 ---
 Symbolic Z-matrix:
 Charge =  0 Multiplicity = 4

                         Standard orientation:
 ---------------------------------------------------------------------
 Center     Atomic      Atomic             Coordinates (Angstroms)
 Number     Number       Type             X           Y           Z
 ---------------------------------------------------------------------
      1         26           0        0.000000    0.000000    0.044444
      2          1           0        0.000000    0.000000   -1.155556
 ---------------------------------------------------------------------

 SCF Done:  E(ROHF) =  -123.534457248     A.U. after   27 cycles
 E2 =    -0.7875067126D+00 EUMP2 =    -0.12432196396098D+03
 CCSD(T)
 CCSD(T)= -0.12432186400D+03

 Unable to determine electronic state:  an orbital has unidentified symmetry.
 Alpha  occ. eigenvalues --   -4.23098  -2.82252  -2.79907  -2.79907  -0.55389
 Alpha  occ. eigenvalues --   -0.55389  -0.54789  -0.52799  -0.47769  -0.30455
 Alpha virt. eigenvalues --    0.00443   0.02442   0.02442   0.02848   0.04692
 Alpha virt. eigenvalues --    0.08148   0.08148   0.09554   0.10240   0.10240
 Alpha virt. eigenvalues --    0.10333   0.10367   0.10526   0.16404   0.25061

 Mulliken charges and spin densities:
               1          2
     1  Fe   0.312210   2.989946
     2  H   -0.312210   0.010054
 Sum of Mulliken charges =  -0.00000   3.00000

 Dipole moment (field-independent basis, Debye):
    X=              0.0000    Y=              0.0000    Z=              3.0365  Tot=              3.0365
 Quadrupole moment (field-independent basis, Debye-Ang):
   XX=            -16.6681   YY=            -16.6681   ZZ=            -15.8374
   XY=              0.0000   XZ=              0.0000   YZ=              0.0000

 \\#P ROCCSD(T)=(maxcyc=100, Full)/Gen SCF=(maxcycle=400, symm) Pseudo=
 2161\CCSD(T)=-124.321864\RMSD=6.490e-09\PG=C*V [C*(H1Fe1)]\\@
 Normal termination of Gaussian 16 at Mon Feb 12 20:23:09 2018.
