 Gaussian 16, Revision A.03,
 Gaussian 16:  ES64L-G16RevA.03 25-Dec-2016

 ----------------------------------------------------------------------
 #P ROCCSD(T)=(maxcyc=100, Full)/Gen SCF=(maxcycle=400, symm) Pseudo=Re
 ad Integral(NoXCTest) Pop=Regular MaxDisk=500GB Guess=Permute IOp(5/15
 =2)
 ----------------------------------------------------------------------

 ---
 FeH
 ---
 Symbolic Z-matrix:
 Charge =  0 Multiplicity = 4

                         Standard orientation:
 ---------------------------------------------------------------------
 Center     Atomic      Atomic             Coordinates (Angstroms)
 Number     Number       Type             X           Y           Z
 ---------------------------------------------------------------------
      1         26           0        0.000000    0.000000    0.044444
      2          1           0        0.000000    0.000000   -1.155556
 ---------------------------------------------------------------------

 SCF Done:  E(ROHF) =  -123.535656428     A.U. after   30 cycles
 E2 =    -0.8229057097D+00 EUMP2 =    -0.12435856213799D+03
 CCSD(T)
 CCSD(T)= -0.12435649994D+03

 Unable to determine electronic state:  partially filled degenerate orbitals.
 Alpha  occ. eigenvalues --   -4.23044  -2.82225  -2.79882  -2.79882  -0.55390
 Alpha  occ. eigenvalues --   -0.55390  -0.54794  -0.52802  -0.47772  -0.30456
 Alpha virt. eigenvalues --    0.00411   0.02240   0.02240   0.02594   0.04548
 Alpha virt. eigenvalues --    0.06262   0.06792   0.06792   0.06861   0.06872
 Alpha virt. eigenvalues --    0.07385   0.07385   0.09222   0.17085   0.18160

 Mulliken charges and spin densities:
               1          2
     1  Fe   0.357593   2.991542
     2  H   -0.357593   0.008458
 Sum of Mulliken charges =  -0.00000   3.00000

 Dipole moment (field-independent basis, Debye):
    X=              0.0000    Y=              0.0000    Z=              3.0354  Tot=              3.0354
 Quadrupole moment (field-independent basis, Debye-Ang):
   XX=            -16.6584   YY=            -16.6584   ZZ=            -15.8397
   XY=              0.0000   XZ=              0.0000   YZ=              0.0000

 \\#P ROCCSD(T)=(maxcyc=100, Full)/Gen SCF=(maxcycle=400, symm) Pseudo=
 3254207\CCSD(T)=-124.3564999\RMSD=1.974e-09\PG=C*V [C*(H1Fe1)]\\@
 Normal termination of Gaussian 16 at Mon Feb 12 20:59:37 2018.
