 Gaussian 16, Revision A.03,
 Gaussian 16:  ES64L-G16RevA.03 25-Dec-2016

 ----------------------------------------------------------------------
 #P ROCCSD(T)=(maxcyc=100, Full)/Gen SCF=(maxcycle=400, symm) Pseudo=Re
 ad Integral(NoXCTest) Pop=Regular MaxDisk=500GB Guess=Permute IOp(5/15
 =2)
 ----------------------------------------------------------------------

 ---
 FeH
 ---
 Symbolic Z-matrix:
 Charge =  0 Multiplicity = 4

                         Standard orientation:
 ---------------------------------------------------------------------
 Center     Atomic      Atomic             Coordinates (Angstroms)
 Number     Number       Type             X           Y           Z
 ---------------------------------------------------------------------
      1         26           0        0.000000    0.000000    0.044444
      2          1           0        0.000000    0.000000   -1.155556
 ---------------------------------------------------------------------

 SCF Done:  E(ROHF) =  -123.536205497     A.U. after   29 cycles
 E2 =    -0.8370825122D+00 EUMP2 =    -0.12437328800946D+03
 CCSD(T)
 CCSD(T)= -0.12436922075D+03

 Unable to determine electronic state:  an orbital has unidentified symmetry.
 Alpha  occ. eigenvalues --   -4.23062  -2.82221  -2.79878  -2.79878  -0.55387
 Alpha  occ. eigenvalues --   -0.55387  -0.54795  -0.52798  -0.47774  -0.30456
 Alpha virt. eigenvalues --    0.00355   0.02178   0.02178   0.02323   0.03895
 Alpha virt. eigenvalues --    0.05925   0.06254   0.06254   0.06285   0.06294
 Alpha virt. eigenvalues --    0.07060   0.07060   0.08104   0.12860   0.17435

 Mulliken charges and spin densities:
               1          2
     1  Fe   0.303921   2.989686
     2  H   -0.303921   0.010314
 Sum of Mulliken charges =   0.00000   3.00000

 Dipole moment (field-independent basis, Debye):
    X=              0.0000    Y=              0.0000    Z=              3.0353  Tot=              3.0353
 Quadrupole moment (field-independent basis, Debye-Ang):
   XX=            -16.6568   YY=            -16.6568   ZZ=            -15.8402
   XY=              0.0000   XZ=              0.0000   YZ=              0.0000

 \\#P ROCCSD(T)=(maxcyc=100, Full)/Gen SCF=(maxcycle=400, symm) Pseudo=
 76708\CCSD(T)=-124.3692207\RMSD=7.041e-09\PG=C*V [C*(H1Fe1)]\\@
 Normal termination of Gaussian 16 at Mon Feb 12 22:37:17 2018.
